LAMMPS (16 Mar 2018)
# 3d Lennard-Jones melt

units		lj
atom_style	atomic

lattice		fcc 0.8442
Lattice spacing in x,y,z = 1.6796 1.6796 1.6796
region		box block 0 4 0 4 0 4
create_box	1 box
Created orthogonal box = (0 0 0) to (6.71838 6.71838 6.71838)
  1 by 1 by 1 MPI processor grid
create_atoms	1 box
Created 256 atoms
  Time spent = 0.000631094 secs
mass		1 1.0

velocity	all create 10.0 87287

pair_style	lj/cut 2.5
pair_coeff	1 1 1.0 1.0 2.5

neighbor	0.3 bin
neigh_modify	every 20 delay 0 check no

python post_force_callback file pylmp.py

fix		1 all nve
fix		2 all python/invoke 50 post_force post_force_callback

dump		id all atom 50 dumpT10.0.lammpstrj
#dump		id all xyz 10 dump.xyz

#dump		2 all image 25 image.*.jpg type type #		axes yes 0.8 0.02 view 60 -30
#dump_modify	2 pad 3

#dump		3 all movie 25 movie.mpg type type #		axes yes 0.8 0.02 view 60 -30
#dump_modify	3 pad 3

thermo		50
run		10000
Neighbor list info ...
  update every 20 steps, delay 0 steps, check no
  max neighbors/atom: 2000, page size: 100000
  master list distance cutoff = 2.8
  ghost atom cutoff = 2.8
  binsize = 1.4, bins = 5 5 5
  1 neighbor lists, perpetual/occasional/extra = 1 0 0
  (1) pair lj/cut, perpetual
      attributes: half, newton on
      pair build: half/bin/atomonly/newton
      stencil: half/bin/3d/newton
      bin: standard
Per MPI rank memory allocation (min/avg/max) = 3.628 | 3.628 | 3.628 Mbytes
Step Temp E_pair E_mol TotEng Press 
       0           10   -6.7733681            0    8.1680382    2.1737062 
      50    6.5926972   -1.6903094            0    8.1601074    23.140547 
     100    6.5336897   -1.5740969            0    8.1881543    23.413022 
     150    6.3917016   -1.2353938            0    8.3147073    24.834453 
     200    6.6236807     -1.41549            0    8.4812205    24.432764 
     250    6.8722716   -1.5541152            0    8.7140249    23.932901 
     300    7.0724127   -1.5619585            0    9.0052206    24.112988 
     350    7.3266765   -1.5742968            0    9.3727882    24.165081 
     400    7.5477144   -1.4721349            0    9.8052118    24.946744 
     450     8.041056   -1.7222367            0    10.292232    23.913581 
     500    8.1315865   -1.3096604            0    10.840073    25.815877 
     550    8.6706741   -1.4976316            0    11.457575    25.610122 
     600    9.1792677   -1.5910097            0    12.124107    25.667506 
     650    9.5644814   -1.4214247            0    12.869256    26.723115 
     700    9.8174316  -0.99892848            0    13.669695    28.732021 
     750    10.740472   -1.5176324            0    14.530143    27.462658 
     800    11.528004   -1.7848277            0    15.439631    26.991243 
     850    12.055755   -1.5725975            0    16.440396    28.523837 
     900    12.776103   -1.5943627            0    17.494932    28.766983 
     950    13.403786   -1.4279865            0    18.599155    30.071154 
    1000    14.168877   -1.3950185            0    19.775276    30.598105 
    1050    15.197729   -1.6940643            0     21.01348    30.196898 
    1100    16.052365   -1.6886988            0    22.295791    31.126732 
    1150    16.940272   -1.6397102            0    23.671438    32.014897 
    1200    17.758831   -1.4397083            0    25.094482    33.588545 
    1250    19.106236   -1.9601721            0    26.587232    32.472274 
    1300    20.230673   -2.0990731            0    28.128397    32.889423 
    1350    21.086479   -1.7623512            0    29.743813    34.989978 
    1400    22.255166    -1.844764            0    31.407584    35.419563 
    1450    23.482802   -1.9359209            0    33.150688      36.2613 
    1500     24.60091   -1.8036347            0    34.953585     37.77385 
    1550     25.63735   -1.4908868            0    36.814919    39.709753 
    1600     27.21967   -1.9267545            0    38.743261    39.431804 
    1650    28.704021    -2.162636            0    40.725208    39.871691 
    1700    29.846354   -1.8085207            0    42.786129    42.098977 
    1750    31.311789   -1.8874918            0    44.896724    42.811275 
    1800    32.885207   -2.0801656            0    47.054958    43.558174 
    1850    34.115255   -1.6670462            0    49.305942    46.438625 
    1900    35.670057   -1.7104016            0    51.585679    47.576082 
    1950    37.049925   -1.3874005            0    53.970398    50.171114 
    2000    38.792027    -1.567947            0    56.392796    50.651674 
    2050    40.419526   -1.5100991            0    58.882357    52.347999 
    2100    42.243844   -1.6902662            0    61.427977    52.926003 
    2150    43.944854   -1.6159442            0    64.043847     54.92397 
    2200     45.70439   -1.5784987            0    66.710286    56.507329 
    2250    47.756323    -1.899223            0    69.455439    56.693428 
    2300    49.294726   -1.4013572            0    72.251896    59.959677 
    2350    51.655146   -2.0649566            0    75.115095    59.536069 
    2400    53.552573   -1.9857386            0    78.029336    61.291364 
    2450    55.117267   -1.3191142            0    81.033834    65.426435 
    2500    57.603798   -1.9931546            0     84.07502    64.617006 
    2550    59.516053   -1.7307814            0    87.194571     67.21136 
    2600    61.586213   -1.6591875            0    90.359276    69.196349 
    2650    63.943418   -1.9340242            0    93.606434    70.208651 
    2700    66.260334   -2.1130602            0    96.889197    71.413489 
    2750    68.317587   -1.8130489            0    100.26303    74.521747 
    2800    70.459982    -1.594444            0    103.68268    77.188066 
    2850    72.518237   -1.1695876            0    107.18286    80.841705 
    2900    75.176299   -1.6071346            0    110.71683    81.228192 
    2950    77.587082   -1.5864567            0    114.33955    83.024264 
    3000    80.577922   -2.3876576            0    118.00709    82.309565 
    3050    82.739613   -1.8743768            0    121.75024     86.53436 
    3100    85.219213   -1.7824432            0    125.54705    88.713649 
    3150    87.926963   -1.9622709            0    129.41298     90.41244 
    3200    90.390751     -1.72426            0    133.33223    93.538426 
    3250    93.069834   -1.7395422            0    137.31988    95.536445 
    3300    95.781657   -1.7383588            0    141.37291    97.985113 
    3350    98.755591   -2.0627071            0    145.49203    98.950832 
    3400    101.24003    -1.596354            0    149.67049    103.08101 
    3450    104.05558   -1.5557952            0    153.91787    105.39822 
    3500    107.18498   -1.9416982            0    158.20774     106.6353 
    3550    109.82705   -1.5280499            0      162.569    110.40302 
    3600    112.99719   -1.8454208            0    166.98826     112.1656 
    3650    116.07405   -1.9467184            0    171.48424    114.10287 
    3700    118.96209   -1.7124256            0    176.03367    117.46943 
    3750    122.12294   -1.8161066            0    180.65273    119.81385 
    3800    125.27355   -1.8548637            0    185.32143    122.02993 
    3850     128.3041    -1.630141            0    190.07422    125.75162 
    3900     131.7083   -1.9307973            0    194.85992    127.25473 
    3950    134.39353   -1.0718179            0    199.73101    132.78352 
    4000    138.27976   -1.9458374            0    204.66356    132.57998 
    4050     141.4445   -1.7002058            0    209.63777    136.35876 
    4100    144.96241   -1.8944848            0    214.69974    138.53744 
    4150    148.14113   -1.5279927            0    219.81569    142.75845 
    4200    151.88489    -1.954399            0    224.98298    144.32488 
    4250    154.99626    -1.363846            0    230.22236    149.36351 
    4300    158.78272   -1.7216995            0    235.52201    150.94646 
    4350    162.36625   -1.7017616            0    240.89624    154.04816 
    4400     166.5618   -2.5478552            0    246.31889     154.1027 
    4450    169.45241   -1.3750019            0    251.81073    161.31927 
    4500    173.71888   -2.2033763            0    257.35706    161.55454 
    4550    177.14017   -1.6906156            0    262.98171    166.44027 
    4600    180.93198   -1.6958146            0      268.642    169.53705 
    4650     184.6515   -1.4992138            0     274.3961    173.62149 
    4700     188.6159   -1.6314915            0    280.18719     176.5417 
    4750    192.92029   -2.1937161            0    286.05632    177.57308 
    4800    196.67939   -1.8791381            0    291.98752    182.11286 
    4850    200.52155   -1.6263534            0    297.98104    186.48859 
    4900    204.75251   -1.9034177            0    304.02563    189.08949 
    4950    208.87769   -1.9550143            0    310.13763    192.09604 
    5000    213.09333   -2.0794793            0    316.31192    194.99982 
    5050    217.18205   -1.9475995            0    322.55293    199.05304 
    5100    221.66324   -2.3433622            0    328.85268    200.94941 
    5150    225.34167   -1.4659346            0    335.22622    208.15996 
    5200    230.04066   -2.0589245            0    341.65418    209.48036 
    5250    234.35232   -2.0170544            0    348.13827    213.34771 
    5300    238.89991   -2.2654119            0    354.68465    216.16869 
    5350    242.87868   -1.5794595            0    361.31544    222.25382 
    5400    247.98479   -2.5441365            0    367.98001    222.59126 
    5450    251.98488   -1.7786583            0    374.72219     228.9868 
    5500    256.80886   -2.1879168            0    381.52063    231.29057 
    5550     261.4452   -2.2463455            0    388.38955    234.96108 
    5600    266.36325   -2.6722951            0    395.31186    237.65245 
    5650    270.65878   -2.1001856            0     402.3021    243.52829 
    5700    275.23207   -1.8954748            0    409.33994    248.21799 
    5750     279.8423   -1.6632404            0     416.4605    253.05849 
    5800    284.69577   -1.7367602            0    423.63875    256.73831 
    5850    289.66636   -1.9240259            0    430.87824    260.00975 
    5900    294.76509   -2.2419545            0    438.17855    263.44557 
    5950    299.36507   -1.7455846            0    445.54793    269.14688 
    6000    304.27608   -1.6600119            0    452.97124    273.44308 
    6050    309.18707     -1.49909            0    460.46987     278.2987 
    6100    314.43183   -1.7894577            0    468.01592    281.50781 
    6150    319.41964   -1.6081733            0    475.64969    286.38771 
    6200    324.67722   -1.8101861            0    483.30323    290.38247 
    6250    329.84633    -1.769929            0    491.06687    294.37092 
    6300    335.15831   -1.9280789            0    498.84557    298.40525 
    6350    340.63056   -2.2375113            0    506.71245    301.73599 
    6400    345.88854   -2.1675972            0    514.63852    306.34009 
    6450    350.81347   -1.5299956            0    522.63466    313.38062 
    6500    356.65933   -2.2131703            0    530.68603    315.29903 
    6550    361.80773   -1.7908573            0    538.80076    321.73858 
    6600    367.32681   -1.8622265            0    546.97569    325.63098 
    6650    372.93208   -1.9981576            0    555.21482    329.97305 
    6700    378.56736   -2.1110925            0    563.52178    334.09111 
    6750    384.06485   -1.9563437            0    571.89055    339.45858 
    6800    389.76873   -2.0657083            0    580.30358    344.04268 
    6850    395.29878   -1.8253427            0    588.80662    349.18411 
    6900    401.29674   -2.2444597            0    597.34931    352.90252 
    6950    406.91587   -2.0248036            0    605.96472    358.18742 
    7000    412.87105   -2.2418353            0    614.64557    362.58772 
    7050    418.50833   -1.9243897            0    623.38591    368.46919 
    7100    424.12737   -1.5173121            0    632.18862    374.73215 
    7150    430.57973   -2.2957214            0    641.05095    376.98618 
    7200    436.09078   -1.5979528            0      649.983    384.41927 
    7250     442.0208   -1.4663159            0    658.97492    390.47382 
    7300    448.36636   -1.9079349            0    668.01445    393.57672 
    7350    454.66084   -2.1858552            0    677.14138    398.00487 
    7400     460.5728   -1.8382795            0    686.32225    404.39953 
    7450    466.95343   -2.1369936            0     695.5571    408.26988 
    7500    472.98681   -1.8516343            0    704.85717    414.61688 
    7550    479.49477   -2.2008973            0    714.23172    418.50955 
    7600    485.63518   -1.9516854            0    723.65557    424.76023 
    7650    492.07523   -2.0766231            0    733.15298    429.62404 
    7700    498.46461    -2.088329            0     742.6879    435.29655 
    7750    504.81085   -1.9496825            0    752.30872    440.96959 
    7800    511.42905   -2.1670905            0    761.97983     445.6238 
    7850    517.70375    -1.795447            0    771.72676    452.62103 
    7900     524.4251   -2.0375721            0    781.52728    457.29519 
    7950     530.8357   -1.7313358            0    791.41185    463.78453 
    8000     537.8769   -2.3453752            0    801.31835    466.91151 
    8050    544.12956   -1.6954875            0    811.31059     475.1742 
    8100    550.95189   -1.8403191            0    821.35928    480.40722 
    8150    557.88852   -2.0771417            0    831.48676    484.99055 
    8200    564.65743   -2.0217965            0    841.65581    490.96821 
    8250    571.57915   -2.1179672            0    851.90166    496.45217 
    8300    578.37233   -1.9680462            0    862.20154    502.74781 
    8350    585.34338   -2.0271622            0    872.55815    508.56217 
    8400    592.43686    -2.196678            0    882.98731     513.7073 
    8450    599.43891   -2.1603681            0    893.48565    519.62801 
    8500     606.2479   -1.7801217            0    904.03949     527.0687 
    8550    613.51588   -2.0129572            0    914.66605    532.14022 
    8600    620.85172   -2.3091631            0    925.33062    537.13749 
    8650    627.84426     -2.01091            0     936.0767    544.29554 
    8700    634.92544   -1.7961823            0    946.87172    551.11921 
    8750    642.63987   -2.4591487            0    957.73519    554.96696 
    8800    649.78426   -2.2009117            0    968.66815    562.02267 
    8850    657.03407   -2.0454414            0    979.65585    568.44764 
    8900      664.428   -2.0360399            0    990.71282    574.96346 
    8950    671.79655   -1.9309056            0    1001.8276    581.56839 
    9000    679.51278   -2.2894906            0    1012.9982    586.67502 
    9050    686.93461    -2.136655            0    1024.2403    593.52865 
    9100     694.4202   -2.0171343            0    1035.5443    600.03381 
    9150    701.78774   -1.6495108            0    1046.9201    608.16419 
    9200    709.90416   -2.3612843            0    1058.3354    611.77303 
    9250    717.57925   -2.3217922            0    1069.8425    618.30471 
    9300     725.2344   -2.2211372            0     1081.381    625.19319 
    9350    732.91398   -2.0786906            0    1092.9979    632.38067 
    9400    740.73522   -2.0850648            0    1104.6775    638.83364 
    9450    748.63019   -2.1308755            0    1116.4279    645.36633 
    9500    756.39271   -1.9344213            0    1128.2227    652.60223 
    9550    764.62729   -2.3704091            0    1140.0903    657.89493 
    9600    772.01041   -1.4713236            0    1152.0208    667.84059 
    9650    780.58397   -2.2961959            0     1164.006    671.34905 
    9700    788.47276   -2.0302484            0    1176.0589    679.14385 
    9750    796.71676   -2.2332693            0    1188.1736     685.2842 
    9800    804.71816    -2.002043            0    1200.3601    692.93734 
    9850    812.81491   -1.8657088            0    1212.5941    700.35949 
    9900    821.26343   -2.1830748            0       1224.9     706.0607 
    9950    829.43657   -2.0243113            0    1237.2706    713.49069 
   10000     837.8119   -2.1191827            0    1249.6896    720.15818 
Loop time of 1.46216 on 1 procs for 10000 steps with 256 atoms

Performance: 2954542.913 tau/day, 6839.220 timesteps/s
101.2% CPU use with 1 MPI tasks x no OpenMP threads

MPI task timing breakdown:
Section |  min time  |  avg time  |  max time  |%varavg| %total
---------------------------------------------------------------
Pair    | 1.1554     | 1.1554     | 1.1554     |   0.0 | 79.02
Neigh   | 0.16206    | 0.16206    | 0.16206    |   0.0 | 11.08
Comm    | 0.055623   | 0.055623   | 0.055623   |   0.0 |  3.80
Output  | 0.031761   | 0.031761   | 0.031761   |   0.0 |  2.17
Modify  | 0.048692   | 0.048692   | 0.048692   |   0.0 |  3.33
Other   |            | 0.008584   |            |       |  0.59

Nlocal:    256 ave 256 max 256 min
Histogram: 1 0 0 0 0 0 0 0 0 0
Nghost:    1321 ave 1321 max 1321 min
Histogram: 1 0 0 0 0 0 0 0 0 0
Neighs:    9748 ave 9748 max 9748 min
Histogram: 1 0 0 0 0 0 0 0 0 0

Total # of neighbors = 9748
Ave neighs/atom = 38.0781
Neighbor list builds = 500
Dangerous builds not checked
Total wall time: 0:00:01
