LAMMPS description

110      atoms

1       atom types

-2.5 2.5 xlo xhi
-2.5 2.5 ylo yhi
-2.5 2.5 zlo zhi

Atoms

     1  1      -0.025   0.244   0.086 
     2  1       1.351  -0.351   0.069 
     3  1       1.449   0.718   0.176 
     4  1      -1.583  -0.624  -0.361 
     5  1      -1.255  -0.113   0.376 
     6  1      -0.195   1.420   0.344 
     7  1       0.609   1.040  -0.076 
     8  1       1.537   1.499  -0.428 
     9  1       2.474   0.850  -0.216 
    10  1      -1.306   1.003  -0.010 
    11  1      -0.748  -2.317  -0.368 
    12  1       0.400   2.074  -0.331 
    13  1       1.743   2.465   0.040 
    14  1       1.900   1.528   0.511 
    15  1      -1.612   2.193   0.223 
    16  1       0.020  -1.702   0.066 
    17  1       1.249  -2.384  -0.766 
    18  1       2.107  -2.134  -0.814 
    19  1      -2.265  -2.095   0.059 
    20  1      -1.009  -1.755   0.577 
    21  1       0.657  -0.869   0.546 
    22  1       1.119  -0.919  -0.974 
    23  1       2.002  -0.522   0.842 
    24  1      -2.135  -1.036   0.235 
    25  1      -0.698  -0.990  -0.008 
    26  1       0.206   0.106   1.510 
    27  1       0.719   0.161   0.702 
    28  1       1.497   0.025   1.496 
    29  1      -2.343   0.161   0.452 
    30  1      -1.011   0.643   0.998 
    31  1       0.240   1.038   1.120 
    32  1       1.225   1.079   1.299 
    33  1       2.074   0.708   1.038 
    34  1      -2.047   1.141   0.792 
    35  1      -1.078   1.598   0.796 
    36  1      -0.536   2.388   0.536 
    37  1       0.936   1.811   0.453 
    38  1       1.682   2.170   1.157 
    39  1       2.497   1.550   1.549 
    40  1      -1.299   2.417   1.126 
    41  1      -1.448  -1.840   1.765 
    42  1       0.983  -1.723  -0.041 
    43  1       1.952  -1.962   0.907 
    44  1      -2.376   2.174   0.795 
    45  1      -2.155  -1.994   1.032 
    46  1       0.481  -0.805   1.768 
    47  1       1.319  -1.171   1.302 
    48  1      -2.267  -1.088   1.258 
    49  1      -1.325  -1.019   1.021 
    50  1      -0.522  -0.337   1.079 
    51  1       0.220  -0.463  -2.466 
    52  1       1.281  -0.344  -2.462 
    53  1      -2.264   0.478   2.044 
    54  1      -1.502  -0.803   2.029 
    55  1      -0.508  -0.748   1.966 
    56  1      -0.340   1.187   1.965 
    57  1       0.738   0.595   2.063 
    58  1       1.898   1.005   1.997 
    59  1      -1.828  -0.073   1.330 
    60  1      -0.853   0.197   1.901 
    61  1       0.220   2.143   1.299 
    62  1       0.827   1.508   2.245 
    63  1       1.836   2.057   2.241 
    64  1      -2.042   1.467   2.482 
    65  1      -1.490   1.068   1.673 
    66  1      -0.050  -1.427   1.120 
    67  1       0.974  -2.040   0.835 
    68  1       2.207  -1.571   1.910 
    69  1      -2.270   2.283   2.149 
    70  1      -0.465  -2.233   1.485 
    71  1       0.250  -1.730   2.294 
    72  1       1.100  -2.273   1.770 
    73  1       2.245  -0.441   1.854 
    74  1      -2.080  -1.613  -2.458 
    75  1      -0.564  -1.967  -2.495 
    76  1      -0.638   0.011  -2.018 
    77  1       0.358  -0.438  -1.421 
    78  1       2.091   0.100  -2.145 
    79  1      -2.223  -0.097  -1.468 
    80  1      -1.529  -0.168  -2.242 
    81  1       0.166   0.861  -2.192 
    82  1       1.169   0.556  -2.002 
    83  1       2.075   1.306  -2.085 
    84  1      -1.978   0.714  -1.817 
    85  1      -1.052   0.825  -1.734 
    86  1      -0.541   1.637  -2.110 
    87  1       1.207  -2.452  -2.112 
    88  1      -2.284   1.989  -1.685 
    89  1      -1.502   2.263  -2.199 
    90  1      -1.078   2.003   1.997 
    91  1       0.389  -1.900  -1.740 
    92  1       0.231   2.322   2.325 
    93  1       1.460  -1.472   2.484 
    94  1       2.192  -2.176  -2.218 
    95  1      -2.029  -1.805  -1.473 
    96  1      -0.248  -1.097  -1.988 
    97  1       0.749  -1.063  -1.961 
    98  1       1.783  -0.849  -1.698 
    99  1      -2.405  -0.723  -2.211 
   100  1      -1.110  -1.082  -2.099 
   101  1       0.243   1.376  -0.990 
   102  1       1.023   0.732  -0.931 
   103  1       2.373  -0.331  -0.455 
   104  1      -1.256  -0.767  -1.238 
   105  1      -0.537  -0.299  -0.915 
   106  1       0.432   2.160  -1.461 
   107  1       1.040   1.522  -1.703 
   108  1       2.072   1.076  -1.153 
   109  1      -1.562   0.300  -0.725 
   110  1      -0.795   0.860  -0.818 
