LAMMPS description

500     atoms

1       atom types

-4.199000 4.199000 xlo xhi
-4.199000 4.199000 ylo yhi
-4.199000 4.199000 zlo zhi

Atoms

1 1  0.0000  0.0000  0.0000 # H
2 1  0.8400  0.8400  0.0000 # H
3 1  0.8400  0.0000  0.8400 # H
4 1  0.0000  0.8400  0.8400 # H
5 1  1.6800  0.0000  0.0000 # H
6 1  2.5190  0.8400  0.0000 # H
7 1  2.5190  0.0000  0.8400 # H
8 1  1.6800  0.8400  0.8400 # H
9 1  3.3590  0.0000  0.0000 # H
10 1  4.1990  0.8400  0.0000 # H
11 1  4.1990  0.0000  0.8400 # H
12 1  3.3590  0.8400  0.8400 # H
13 1  5.0390  0.0000  0.0000 # H
14 1  5.8790  0.8400  0.0000 # H
15 1  5.8790  0.0000  0.8400 # H
16 1  5.0390  0.8400  0.8400 # H
17 1  6.7180  0.0000  0.0000 # H
18 1  7.5580  0.8400  0.0000 # H
19 1  7.5580  0.0000  0.8400 # H
20 1  6.7180  0.8400  0.8400 # H
21 1  0.0000  1.6800  0.0000 # H
22 1  0.8400  2.5190  0.0000 # H
23 1  0.8400  1.6800  0.8400 # H
24 1  0.0000  2.5190  0.8400 # H
25 1  1.6800  1.6800  0.0000 # H
26 1  2.5190  2.5190  0.0000 # H
27 1  2.5190  1.6800  0.8400 # H
28 1  1.6800  2.5190  0.8400 # H
29 1  3.3590  1.6800  0.0000 # H
30 1  4.1990  2.5190  0.0000 # H
31 1  4.1990  1.6800  0.8400 # H
32 1  3.3590  2.5190  0.8400 # H
33 1  5.0390  1.6800  0.0000 # H
34 1  5.8790  2.5190  0.0000 # H
35 1  5.8790  1.6800  0.8400 # H
36 1  5.0390  2.5190  0.8400 # H
37 1  6.7180  1.6800  0.0000 # H
38 1  7.5580  2.5190  0.0000 # H
39 1  7.5580  1.6800  0.8400 # H
40 1  6.7180  2.5190  0.8400 # H
41 1  0.0000  3.3590  0.0000 # H
42 1  0.8400  4.1990  0.0000 # H
43 1  0.8400  3.3590  0.8400 # H
44 1  0.0000  4.1990  0.8400 # H
45 1  1.6800  3.3590  0.0000 # H
46 1  2.5190  4.1990  0.0000 # H
47 1  2.5190  3.3590  0.8400 # H
48 1  1.6800  4.1990  0.8400 # H
49 1  3.3590  3.3590  0.0000 # H
50 1  4.1990  4.1990  0.0000 # H
51 1  4.1990  3.3590  0.8400 # H
52 1  3.3590  4.1990  0.8400 # H
53 1  5.0390  3.3590  0.0000 # H
54 1  5.8790  4.1990  0.0000 # H
55 1  5.8790  3.3590  0.8400 # H
56 1  5.0390  4.1990  0.8400 # H
57 1  6.7180  3.3590  0.0000 # H
58 1  7.5580  4.1990  0.0000 # H
59 1  7.5580  3.3590  0.8400 # H
60 1  6.7180  4.1990  0.8400 # H
61 1  0.0000  5.0390  0.0000 # H
62 1  0.8400  5.8790  0.0000 # H
63 1  0.8400  5.0390  0.8400 # H
64 1  0.0000  5.8790  0.8400 # H
65 1  1.6800  5.0390  0.0000 # H
66 1  2.5190  5.8790  0.0000 # H
67 1  2.5190  5.0390  0.8400 # H
68 1  1.6800  5.8790  0.8400 # H
69 1  3.3590  5.0390  0.0000 # H
70 1  4.1990  5.8790  0.0000 # H
71 1  4.1990  5.0390  0.8400 # H
72 1  3.3590  5.8790  0.8400 # H
73 1  5.0390  5.0390  0.0000 # H
74 1  5.8790  5.8790  0.0000 # H
75 1  5.8790  5.0390  0.8400 # H
76 1  5.0390  5.8790  0.8400 # H
77 1  6.7180  5.0390  0.0000 # H
78 1  7.5580  5.8790  0.0000 # H
79 1  7.5580  5.0390  0.8400 # H
80 1  6.7180  5.8790  0.8400 # H
81 1  0.0000  6.7180  0.0000 # H
82 1  0.8400  7.5580  0.0000 # H
83 1  0.8400  6.7180  0.8400 # H
84 1  0.0000  7.5580  0.8400 # H
85 1  1.6800  6.7180  0.0000 # H
86 1  2.5190  7.5580  0.0000 # H
87 1  2.5190  6.7180  0.8400 # H
88 1  1.6800  7.5580  0.8400 # H
89 1  3.3590  6.7180  0.0000 # H
90 1  4.1990  7.5580  0.0000 # H
91 1  4.1990  6.7180  0.8400 # H
92 1  3.3590  7.5580  0.8400 # H
93 1  5.0390  6.7180  0.0000 # H
94 1  5.8790  7.5580  0.0000 # H
95 1  5.8790  6.7180  0.8400 # H
96 1  5.0390  7.5580  0.8400 # H
97 1  6.7180  6.7180  0.0000 # H
98 1  7.5580  7.5580  0.0000 # H
99 1  7.5580  6.7180  0.8400 # H
100 1  6.7180  7.5580  0.8400 # H
101 1  0.0000  0.0000  1.6800 # H
102 1  0.8400  0.8400  1.6800 # H
103 1  0.8400  0.0000  2.5190 # H
104 1  0.0000  0.8400  2.5190 # H
105 1  1.6800  0.0000  1.6800 # H
106 1  2.5190  0.8400  1.6800 # H
107 1  2.5190  0.0000  2.5190 # H
108 1  1.6800  0.8400  2.5190 # H
109 1  3.3590  0.0000  1.6800 # H
110 1  4.1990  0.8400  1.6800 # H
111 1  4.1990  0.0000  2.5190 # H
112 1  3.3590  0.8400  2.5190 # H
113 1  5.0390  0.0000  1.6800 # H
114 1  5.8790  0.8400  1.6800 # H
115 1  5.8790  0.0000  2.5190 # H
116 1  5.0390  0.8400  2.5190 # H
117 1  6.7180  0.0000  1.6800 # H
118 1  7.5580  0.8400  1.6800 # H
119 1  7.5580  0.0000  2.5190 # H
120 1  6.7180  0.8400  2.5190 # H
121 1  0.0000  1.6800  1.6800 # H
122 1  0.8400  2.5190  1.6800 # H
123 1  0.8400  1.6800  2.5190 # H
124 1  0.0000  2.5190  2.5190 # H
125 1  1.6800  1.6800  1.6800 # H
126 1  2.5190  2.5190  1.6800 # H
127 1  2.5190  1.6800  2.5190 # H
128 1  1.6800  2.5190  2.5190 # H
129 1  3.3590  1.6800  1.6800 # H
130 1  4.1990  2.5190  1.6800 # H
131 1  4.1990  1.6800  2.5190 # H
132 1  3.3590  2.5190  2.5190 # H
133 1  5.0390  1.6800  1.6800 # H
134 1  5.8790  2.5190  1.6800 # H
135 1  5.8790  1.6800  2.5190 # H
136 1  5.0390  2.5190  2.5190 # H
137 1  6.7180  1.6800  1.6800 # H
138 1  7.5580  2.5190  1.6800 # H
139 1  7.5580  1.6800  2.5190 # H
140 1  6.7180  2.5190  2.5190 # H
141 1  0.0000  3.3590  1.6800 # H
142 1  0.8400  4.1990  1.6800 # H
143 1  0.8400  3.3590  2.5190 # H
144 1  0.0000  4.1990  2.5190 # H
145 1  1.6800  3.3590  1.6800 # H
146 1  2.5190  4.1990  1.6800 # H
147 1  2.5190  3.3590  2.5190 # H
148 1  1.6800  4.1990  2.5190 # H
149 1  3.3590  3.3590  1.6800 # H
150 1  4.1990  4.1990  1.6800 # H
151 1  4.1990  3.3590  2.5190 # H
152 1  3.3590  4.1990  2.5190 # H
153 1  5.0390  3.3590  1.6800 # H
154 1  5.8790  4.1990  1.6800 # H
155 1  5.8790  3.3590  2.5190 # H
156 1  5.0390  4.1990  2.5190 # H
157 1  6.7180  3.3590  1.6800 # H
158 1  7.5580  4.1990  1.6800 # H
159 1  7.5580  3.3590  2.5190 # H
160 1  6.7180  4.1990  2.5190 # H
161 1  0.0000  5.0390  1.6800 # H
162 1  0.8400  5.8790  1.6800 # H
163 1  0.8400  5.0390  2.5190 # H
164 1  0.0000  5.8790  2.5190 # H
165 1  1.6800  5.0390  1.6800 # H
166 1  2.5190  5.8790  1.6800 # H
167 1  2.5190  5.0390  2.5190 # H
168 1  1.6800  5.8790  2.5190 # H
169 1  3.3590  5.0390  1.6800 # H
170 1  4.1990  5.8790  1.6800 # H
171 1  4.1990  5.0390  2.5190 # H
172 1  3.3590  5.8790  2.5190 # H
173 1  5.0390  5.0390  1.6800 # H
174 1  5.8790  5.8790  1.6800 # H
175 1  5.8790  5.0390  2.5190 # H
176 1  5.0390  5.8790  2.5190 # H
177 1  6.7180  5.0390  1.6800 # H
178 1  7.5580  5.8790  1.6800 # H
179 1  7.5580  5.0390  2.5190 # H
180 1  6.7180  5.8790  2.5190 # H
181 1  0.0000  6.7180  1.6800 # H
182 1  0.8400  7.5580  1.6800 # H
183 1  0.8400  6.7180  2.5190 # H
184 1  0.0000  7.5580  2.5190 # H
185 1  1.6800  6.7180  1.6800 # H
186 1  2.5190  7.5580  1.6800 # H
187 1  2.5190  6.7180  2.5190 # H
188 1  1.6800  7.5580  2.5190 # H
189 1  3.3590  6.7180  1.6800 # H
190 1  4.1990  7.5580  1.6800 # H
191 1  4.1990  6.7180  2.5190 # H
192 1  3.3590  7.5580  2.5190 # H
193 1  5.0390  6.7180  1.6800 # H
194 1  5.8790  7.5580  1.6800 # H
195 1  5.8790  6.7180  2.5190 # H
196 1  5.0390  7.5580  2.5190 # H
197 1  6.7180  6.7180  1.6800 # H
198 1  7.5580  7.5580  1.6800 # H
199 1  7.5580  6.7180  2.5190 # H
200 1  6.7180  7.5580  2.5190 # H
201 1  0.0000  0.0000  3.3590 # H
202 1  0.8400  0.8400  3.3590 # H
203 1  0.8400  0.0000  4.1990 # H
204 1  0.0000  0.8400  4.1990 # H
205 1  1.6800  0.0000  3.3590 # H
206 1  2.5190  0.8400  3.3590 # H
207 1  2.5190  0.0000  4.1990 # H
208 1  1.6800  0.8400  4.1990 # H
209 1  3.3590  0.0000  3.3590 # H
210 1  4.1990  0.8400  3.3590 # H
211 1  4.1990  0.0000  4.1990 # H
212 1  3.3590  0.8400  4.1990 # H
213 1  5.0390  0.0000  3.3590 # H
214 1  5.8790  0.8400  3.3590 # H
215 1  5.8790  0.0000  4.1990 # H
216 1  5.0390  0.8400  4.1990 # H
217 1  6.7180  0.0000  3.3590 # H
218 1  7.5580  0.8400  3.3590 # H
219 1  7.5580  0.0000  4.1990 # H
220 1  6.7180  0.8400  4.1990 # H
221 1  0.0000  1.6800  3.3590 # H
222 1  0.8400  2.5190  3.3590 # H
223 1  0.8400  1.6800  4.1990 # H
224 1  0.0000  2.5190  4.1990 # H
225 1  1.6800  1.6800  3.3590 # H
226 1  2.5190  2.5190  3.3590 # H
227 1  2.5190  1.6800  4.1990 # H
228 1  1.6800  2.5190  4.1990 # H
229 1  3.3590  1.6800  3.3590 # H
230 1  4.1990  2.5190  3.3590 # H
231 1  4.1990  1.6800  4.1990 # H
232 1  3.3590  2.5190  4.1990 # H
233 1  5.0390  1.6800  3.3590 # H
234 1  5.8790  2.5190  3.3590 # H
235 1  5.8790  1.6800  4.1990 # H
236 1  5.0390  2.5190  4.1990 # H
237 1  6.7180  1.6800  3.3590 # H
238 1  7.5580  2.5190  3.3590 # H
239 1  7.5580  1.6800  4.1990 # H
240 1  6.7180  2.5190  4.1990 # H
241 1  0.0000  3.3590  3.3590 # H
242 1  0.8400  4.1990  3.3590 # H
243 1  0.8400  3.3590  4.1990 # H
244 1  0.0000  4.1990  4.1990 # H
245 1  1.6800  3.3590  3.3590 # H
246 1  2.5190  4.1990  3.3590 # H
247 1  2.5190  3.3590  4.1990 # H
248 1  1.6800  4.1990  4.1990 # H
249 1  3.3590  3.3590  3.3590 # H
250 1  4.1990  4.1990  3.3590 # H
251 1  4.1990  3.3590  4.1990 # H
252 1  3.3590  4.1990  4.1990 # H
253 1  5.0390  3.3590  3.3590 # H
254 1  5.8790  4.1990  3.3590 # H
255 1  5.8790  3.3590  4.1990 # H
256 1  5.0390  4.1990  4.1990 # H
257 1  6.7180  3.3590  3.3590 # H
258 1  7.5580  4.1990  3.3590 # H
259 1  7.5580  3.3590  4.1990 # H
260 1  6.7180  4.1990  4.1990 # H
261 1  0.0000  5.0390  3.3590 # H
262 1  0.8400  5.8790  3.3590 # H
263 1  0.8400  5.0390  4.1990 # H
264 1  0.0000  5.8790  4.1990 # H
265 1  1.6800  5.0390  3.3590 # H
266 1  2.5190  5.8790  3.3590 # H
267 1  2.5190  5.0390  4.1990 # H
268 1  1.6800  5.8790  4.1990 # H
269 1  3.3590  5.0390  3.3590 # H
270 1  4.1990  5.8790  3.3590 # H
271 1  4.1990  5.0390  4.1990 # H
272 1  3.3590  5.8790  4.1990 # H
273 1  5.0390  5.0390  3.3590 # H
274 1  5.8790  5.8790  3.3590 # H
275 1  5.8790  5.0390  4.1990 # H
276 1  5.0390  5.8790  4.1990 # H
277 1  6.7180  5.0390  3.3590 # H
278 1  7.5580  5.8790  3.3590 # H
279 1  7.5580  5.0390  4.1990 # H
280 1  6.7180  5.8790  4.1990 # H
281 1  0.0000  6.7180  3.3590 # H
282 1  0.8400  7.5580  3.3590 # H
283 1  0.8400  6.7180  4.1990 # H
284 1  0.0000  7.5580  4.1990 # H
285 1  1.6800  6.7180  3.3590 # H
286 1  2.5190  7.5580  3.3590 # H
287 1  2.5190  6.7180  4.1990 # H
288 1  1.6800  7.5580  4.1990 # H
289 1  3.3590  6.7180  3.3590 # H
290 1  4.1990  7.5580  3.3590 # H
291 1  4.1990  6.7180  4.1990 # H
292 1  3.3590  7.5580  4.1990 # H
293 1  5.0390  6.7180  3.3590 # H
294 1  5.8790  7.5580  3.3590 # H
295 1  5.8790  6.7180  4.1990 # H
296 1  5.0390  7.5580  4.1990 # H
297 1  6.7180  6.7180  3.3590 # H
298 1  7.5580  7.5580  3.3590 # H
299 1  7.5580  6.7180  4.1990 # H
300 1  6.7180  7.5580  4.1990 # H
301 1  0.0000  0.0000  5.0390 # H
302 1  0.8400  0.8400  5.0390 # H
303 1  0.8400  0.0000  5.8790 # H
304 1  0.0000  0.8400  5.8790 # H
305 1  1.6800  0.0000  5.0390 # H
306 1  2.5190  0.8400  5.0390 # H
307 1  2.5190  0.0000  5.8790 # H
308 1  1.6800  0.8400  5.8790 # H
309 1  3.3590  0.0000  5.0390 # H
310 1  4.1990  0.8400  5.0390 # H
311 1  4.1990  0.0000  5.8790 # H
312 1  3.3590  0.8400  5.8790 # H
313 1  5.0390  0.0000  5.0390 # H
314 1  5.8790  0.8400  5.0390 # H
315 1  5.8790  0.0000  5.8790 # H
316 1  5.0390  0.8400  5.8790 # H
317 1  6.7180  0.0000  5.0390 # H
318 1  7.5580  0.8400  5.0390 # H
319 1  7.5580  0.0000  5.8790 # H
320 1  6.7180  0.8400  5.8790 # H
321 1  0.0000  1.6800  5.0390 # H
322 1  0.8400  2.5190  5.0390 # H
323 1  0.8400  1.6800  5.8790 # H
324 1  0.0000  2.5190  5.8790 # H
325 1  1.6800  1.6800  5.0390 # H
326 1  2.5190  2.5190  5.0390 # H
327 1  2.5190  1.6800  5.8790 # H
328 1  1.6800  2.5190  5.8790 # H
329 1  3.3590  1.6800  5.0390 # H
330 1  4.1990  2.5190  5.0390 # H
331 1  4.1990  1.6800  5.8790 # H
332 1  3.3590  2.5190  5.8790 # H
333 1  5.0390  1.6800  5.0390 # H
334 1  5.8790  2.5190  5.0390 # H
335 1  5.8790  1.6800  5.8790 # H
336 1  5.0390  2.5190  5.8790 # H
337 1  6.7180  1.6800  5.0390 # H
338 1  7.5580  2.5190  5.0390 # H
339 1  7.5580  1.6800  5.8790 # H
340 1  6.7180  2.5190  5.8790 # H
341 1  0.0000  3.3590  5.0390 # H
342 1  0.8400  4.1990  5.0390 # H
343 1  0.8400  3.3590  5.8790 # H
344 1  0.0000  4.1990  5.8790 # H
345 1  1.6800  3.3590  5.0390 # H
346 1  2.5190  4.1990  5.0390 # H
347 1  2.5190  3.3590  5.8790 # H
348 1  1.6800  4.1990  5.8790 # H
349 1  3.3590  3.3590  5.0390 # H
350 1  4.1990  4.1990  5.0390 # H
351 1  4.1990  3.3590  5.8790 # H
352 1  3.3590  4.1990  5.8790 # H
353 1  5.0390  3.3590  5.0390 # H
354 1  5.8790  4.1990  5.0390 # H
355 1  5.8790  3.3590  5.8790 # H
356 1  5.0390  4.1990  5.8790 # H
357 1  6.7180  3.3590  5.0390 # H
358 1  7.5580  4.1990  5.0390 # H
359 1  7.5580  3.3590  5.8790 # H
360 1  6.7180  4.1990  5.8790 # H
361 1  0.0000  5.0390  5.0390 # H
362 1  0.8400  5.8790  5.0390 # H
363 1  0.8400  5.0390  5.8790 # H
364 1  0.0000  5.8790  5.8790 # H
365 1  1.6800  5.0390  5.0390 # H
366 1  2.5190  5.8790  5.0390 # H
367 1  2.5190  5.0390  5.8790 # H
368 1  1.6800  5.8790  5.8790 # H
369 1  3.3590  5.0390  5.0390 # H
370 1  4.1990  5.8790  5.0390 # H
371 1  4.1990  5.0390  5.8790 # H
372 1  3.3590  5.8790  5.8790 # H
373 1  5.0390  5.0390  5.0390 # H
374 1  5.8790  5.8790  5.0390 # H
375 1  5.8790  5.0390  5.8790 # H
376 1  5.0390  5.8790  5.8790 # H
377 1  6.7180  5.0390  5.0390 # H
378 1  7.5580  5.8790  5.0390 # H
379 1  7.5580  5.0390  5.8790 # H
380 1  6.7180  5.8790  5.8790 # H
381 1  0.0000  6.7180  5.0390 # H
382 1  0.8400  7.5580  5.0390 # H
383 1  0.8400  6.7180  5.8790 # H
384 1  0.0000  7.5580  5.8790 # H
385 1  1.6800  6.7180  5.0390 # H
386 1  2.5190  7.5580  5.0390 # H
387 1  2.5190  6.7180  5.8790 # H
388 1  1.6800  7.5580  5.8790 # H
389 1  3.3590  6.7180  5.0390 # H
390 1  4.1990  7.5580  5.0390 # H
391 1  4.1990  6.7180  5.8790 # H
392 1  3.3590  7.5580  5.8790 # H
393 1  5.0390  6.7180  5.0390 # H
394 1  5.8790  7.5580  5.0390 # H
395 1  5.8790  6.7180  5.8790 # H
396 1  5.0390  7.5580  5.8790 # H
397 1  6.7180  6.7180  5.0390 # H
398 1  7.5580  7.5580  5.0390 # H
399 1  7.5580  6.7180  5.8790 # H
400 1  6.7180  7.5580  5.8790 # H
401 1  0.0000  0.0000  6.7180 # H
402 1  0.8400  0.8400  6.7180 # H
403 1  0.8400  0.0000  7.5580 # H
404 1  0.0000  0.8400  7.5580 # H
405 1  1.6800  0.0000  6.7180 # H
406 1  2.5190  0.8400  6.7180 # H
407 1  2.5190  0.0000  7.5580 # H
408 1  1.6800  0.8400  7.5580 # H
409 1  3.3590  0.0000  6.7180 # H
410 1  4.1990  0.8400  6.7180 # H
411 1  4.1990  0.0000  7.5580 # H
412 1  3.3590  0.8400  7.5580 # H
413 1  5.0390  0.0000  6.7180 # H
414 1  5.8790  0.8400  6.7180 # H
415 1  5.8790  0.0000  7.5580 # H
416 1  5.0390  0.8400  7.5580 # H
417 1  6.7180  0.0000  6.7180 # H
418 1  7.5580  0.8400  6.7180 # H
419 1  7.5580  0.0000  7.5580 # H
420 1  6.7180  0.8400  7.5580 # H
421 1  0.0000  1.6800  6.7180 # H
422 1  0.8400  2.5190  6.7180 # H
423 1  0.8400  1.6800  7.5580 # H
424 1  0.0000  2.5190  7.5580 # H
425 1  1.6800  1.6800  6.7180 # H
426 1  2.5190  2.5190  6.7180 # H
427 1  2.5190  1.6800  7.5580 # H
428 1  1.6800  2.5190  7.5580 # H
429 1  3.3590  1.6800  6.7180 # H
430 1  4.1990  2.5190  6.7180 # H
431 1  4.1990  1.6800  7.5580 # H
432 1  3.3590  2.5190  7.5580 # H
433 1  5.0390  1.6800  6.7180 # H
434 1  5.8790  2.5190  6.7180 # H
435 1  5.8790  1.6800  7.5580 # H
436 1  5.0390  2.5190  7.5580 # H
437 1  6.7180  1.6800  6.7180 # H
438 1  7.5580  2.5190  6.7180 # H
439 1  7.5580  1.6800  7.5580 # H
440 1  6.7180  2.5190  7.5580 # H
441 1  0.0000  3.3590  6.7180 # H
442 1  0.8400  4.1990  6.7180 # H
443 1  0.8400  3.3590  7.5580 # H
444 1  0.0000  4.1990  7.5580 # H
445 1  1.6800  3.3590  6.7180 # H
446 1  2.5190  4.1990  6.7180 # H
447 1  2.5190  3.3590  7.5580 # H
448 1  1.6800  4.1990  7.5580 # H
449 1  3.3590  3.3590  6.7180 # H
450 1  4.1990  4.1990  6.7180 # H
451 1  4.1990  3.3590  7.5580 # H
452 1  3.3590  4.1990  7.5580 # H
453 1  5.0390  3.3590  6.7180 # H
454 1  5.8790  4.1990  6.7180 # H
455 1  5.8790  3.3590  7.5580 # H
456 1  5.0390  4.1990  7.5580 # H
457 1  6.7180  3.3590  6.7180 # H
458 1  7.5580  4.1990  6.7180 # H
459 1  7.5580  3.3590  7.5580 # H
460 1  6.7180  4.1990  7.5580 # H
461 1  0.0000  5.0390  6.7180 # H
462 1  0.8400  5.8790  6.7180 # H
463 1  0.8400  5.0390  7.5580 # H
464 1  0.0000  5.8790  7.5580 # H
465 1  1.6800  5.0390  6.7180 # H
466 1  2.5190  5.8790  6.7180 # H
467 1  2.5190  5.0390  7.5580 # H
468 1  1.6800  5.8790  7.5580 # H
469 1  3.3590  5.0390  6.7180 # H
470 1  4.1990  5.8790  6.7180 # H
471 1  4.1990  5.0390  7.5580 # H
472 1  3.3590  5.8790  7.5580 # H
473 1  5.0390  5.0390  6.7180 # H
474 1  5.8790  5.8790  6.7180 # H
475 1  5.8790  5.0390  7.5580 # H
476 1  5.0390  5.8790  7.5580 # H
477 1  6.7180  5.0390  6.7180 # H
478 1  7.5580  5.8790  6.7180 # H
479 1  7.5580  5.0390  7.5580 # H
480 1  6.7180  5.8790  7.5580 # H
481 1  0.0000  6.7180  6.7180 # H
482 1  0.8400  7.5580  6.7180 # H
483 1  0.8400  6.7180  7.5580 # H
484 1  0.0000  7.5580  7.5580 # H
485 1  1.6800  6.7180  6.7180 # H
486 1  2.5190  7.5580  6.7180 # H
487 1  2.5190  6.7180  7.5580 # H
488 1  1.6800  7.5580  7.5580 # H
489 1  3.3590  6.7180  6.7180 # H
490 1  4.1990  7.5580  6.7180 # H
491 1  4.1990  6.7180  7.5580 # H
492 1  3.3590  7.5580  7.5580 # H
493 1  5.0390  6.7180  6.7180 # H
494 1  5.8790  7.5580  6.7180 # H
495 1  5.8790  6.7180  7.5580 # H
496 1  5.0390  7.5580  7.5580 # H
497 1  6.7180  6.7180  6.7180 # H
498 1  7.5580  7.5580  6.7180 # H
499 1  7.5580  6.7180  7.5580 # H
500 1  6.7180  7.5580  7.5580 # H
