LAMMPS (16 Mar 2018)
# 3d Lennard-Jones melt

units		lj
atom_style	atomic

lattice		fcc 0.8442
Lattice spacing in x,y,z = 1.6796 1.6796 1.6796
region		box block 0 4 0 4 0 4
create_box	1 box
Created orthogonal box = (0 0 0) to (6.71838 6.71838 6.71838)
  1 by 1 by 1 MPI processor grid
create_atoms	1 box
Created 256 atoms
  Time spent = 0.000241995 secs
mass		1 1.0

group 1 id 10
1 atoms in group 1

velocity	all create 10.0 87287

pair_style	lj/cut 2.5
pair_coeff	1 1 1.0 1.0 2.5

neighbor	0.3 bin
neigh_modify	every 20 delay 0 check no

python post_force_callback file test.py

#variable u equal 1.0

fix		1 all nve
#fix   2 all store/force
fix	  3 1 addforce 0.0 0.0 0.0
#fix   4 all store/force
fix		5 all python/invoke 50 post_force post_force_callback

dump		id all atom 50 dumpT10.0.lammpstrj

#variable  n	equal step
#variable  fE	equal f_2
#variable  fF  equal f_2[1]

#fix		out all print 50 "${n} ${fE} ${fF}" title "#step fixE fixF" screen no file outputFixE01.dat

thermo_style multi
thermo		50
run		10000
Neighbor list info ...
  update every 20 steps, delay 0 steps, check no
  max neighbors/atom: 2000, page size: 100000
  master list distance cutoff = 2.8
  ghost atom cutoff = 2.8
  binsize = 1.4, bins = 5 5 5
  1 neighbor lists, perpetual/occasional/extra = 1 0 0
  (1) pair lj/cut, perpetual
      attributes: half, newton on
      pair build: half/bin/atomonly/newton
      stencil: half/bin/3d/newton
      bin: standard
Per MPI rank memory allocation (min/avg/max) = 3.628 | 3.628 | 3.628 Mbytes
---------------- Step        0 ----- CPU =      0.0000 (sec) ----------------
TotEng   =         8.1680 KinEng   =        14.9414 Temp     =        10.0000 
PotEng   =        -6.7734 E_bond   =         0.0000 E_angle  =         0.0000 
E_dihed  =         0.0000 E_impro  =         0.0000 E_vdwl   =        -6.7734 
E_coul   =         0.0000 E_long   =         0.0000 Press    =         2.1737 
---------------- Step       50 ----- CPU =      0.0102 (sec) ----------------
TotEng   =         8.1523 KinEng   =         9.8426 Temp     =         6.5875 
PotEng   =        -1.6903 E_bond   =         0.0000 E_angle  =         0.0000 
E_dihed  =         0.0000 E_impro  =         0.0000 E_vdwl   =        -1.6903 
E_coul   =         0.0000 E_long   =         0.0000 Press    =        23.1362 
---------------- Step      100 ----- CPU =      0.0177 (sec) ----------------
TotEng   =         8.1178 KinEng   =         9.6919 Temp     =         6.4866 
PotEng   =        -1.5741 E_bond   =         0.0000 E_angle  =         0.0000 
E_dihed  =         0.0000 E_impro  =         0.0000 E_vdwl   =        -1.5741 
E_coul   =         0.0000 E_long   =         0.0000 Press    =        23.3734 
---------------- Step      150 ----- CPU =      0.0247 (sec) ----------------
TotEng   =         8.1194 KinEng   =         9.3548 Temp     =         6.2610 
PotEng   =        -1.2354 E_bond   =         0.0000 E_angle  =         0.0000 
E_dihed  =         0.0000 E_impro  =         0.0000 E_vdwl   =        -1.2354 
E_coul   =         0.0000 E_long   =         0.0000 Press    =        24.7245 
---------------- Step      200 ----- CPU =      0.0325 (sec) ----------------
TotEng   =         8.0984 KinEng   =         9.5139 Temp     =         6.3675 
PotEng   =        -1.4155 E_bond   =         0.0000 E_angle  =         0.0000 
E_dihed  =         0.0000 E_impro  =         0.0000 E_vdwl   =        -1.4155 
E_coul   =         0.0000 E_long   =         0.0000 Press    =        24.2173 
---------------- Step      250 ----- CPU =      0.0396 (sec) ----------------
TotEng   =         8.0812 KinEng   =         9.6353 Temp     =         6.4487 
PotEng   =        -1.5541 E_bond   =         0.0000 E_angle  =         0.0000 
E_dihed  =         0.0000 E_impro  =         0.0000 E_vdwl   =        -1.5541 
E_coul   =         0.0000 E_long   =         0.0000 Press    =        23.5768 
---------------- Step      300 ----- CPU =      0.0471 (sec) ----------------
TotEng   =         8.0599 KinEng   =         9.6219 Temp     =         6.4397 
PotEng   =        -1.5620 E_bond   =         0.0000 E_angle  =         0.0000 
E_dihed  =         0.0000 E_impro  =         0.0000 E_vdwl   =        -1.5620 
E_coul   =         0.0000 E_long   =         0.0000 Press    =        23.5810 
---------------- Step      350 ----- CPU =      0.0543 (sec) ----------------
TotEng   =         8.0525 KinEng   =         9.6268 Temp     =         6.4430 
PotEng   =        -1.5743 E_bond   =         0.0000 E_angle  =         0.0000 
E_dihed  =         0.0000 E_impro  =         0.0000 E_vdwl   =        -1.5743 
E_coul   =         0.0000 E_long   =         0.0000 Press    =        23.4220 
---------------- Step      400 ----- CPU =      0.0622 (sec) ----------------
TotEng   =         8.0474 KinEng   =         9.5195 Temp     =         6.3712 
PotEng   =        -1.4721 E_bond   =         0.0000 E_angle  =         0.0000 
E_dihed  =         0.0000 E_impro  =         0.0000 E_vdwl   =        -1.4721 
E_coul   =         0.0000 E_long   =         0.0000 Press    =        23.9574 
---------------- Step      450 ----- CPU =      0.0694 (sec) ----------------
TotEng   =         8.0344 KinEng   =         9.7567 Temp     =         6.5299 
PotEng   =        -1.7222 E_bond   =         0.0000 E_angle  =         0.0000 
E_dihed  =         0.0000 E_impro  =         0.0000 E_vdwl   =        -1.7222 
E_coul   =         0.0000 E_long   =         0.0000 Press    =        22.6429 
---------------- Step      500 ----- CPU =      0.0769 (sec) ----------------
TotEng   =         8.0198 KinEng   =         9.3294 Temp     =         6.2440 
PotEng   =        -1.3097 E_bond   =         0.0000 E_angle  =         0.0000 
E_dihed  =         0.0000 E_impro  =         0.0000 E_vdwl   =        -1.3097 
E_coul   =         0.0000 E_long   =         0.0000 Press    =        24.2286 
---------------- Step      550 ----- CPU =      0.0840 (sec) ----------------
TotEng   =         8.0123 KinEng   =         9.5099 Temp     =         6.3648 
PotEng   =        -1.4976 E_bond   =         0.0000 E_angle  =         0.0000 
E_dihed  =         0.0000 E_impro  =         0.0000 E_vdwl   =        -1.4976 
E_coul   =         0.0000 E_long   =         0.0000 Press    =        23.6713 
---------------- Step      600 ----- CPU =      0.0919 (sec) ----------------
TotEng   =         7.9913 KinEng   =         9.5815 Temp     =         6.4127 
PotEng   =        -1.5902 E_bond   =         0.0000 E_angle  =         0.0000 
E_dihed  =         0.0000 E_impro  =         0.0000 E_vdwl   =        -1.5902 
E_coul   =         0.0000 E_long   =         0.0000 Press    =        23.3436 
---------------- Step      650 ----- CPU =      0.0992 (sec) ----------------
TotEng   =         7.9877 KinEng   =         9.3887 Temp     =         6.2837 
PotEng   =        -1.4010 E_bond   =         0.0000 E_angle  =         0.0000 
E_dihed  =         0.0000 E_impro  =         0.0000 E_vdwl   =        -1.4010 
E_coul   =         0.0000 E_long   =         0.0000 Press    =        24.0616 
---------------- Step      700 ----- CPU =      0.1068 (sec) ----------------
TotEng   =         7.9676 KinEng   =         9.1910 Temp     =         6.1514 
PotEng   =        -1.2234 E_bond   =         0.0000 E_angle  =         0.0000 
E_dihed  =         0.0000 E_impro  =         0.0000 E_vdwl   =        -1.2234 
E_coul   =         0.0000 E_long   =         0.0000 Press    =        24.7616 
---------------- Step      750 ----- CPU =      0.1140 (sec) ----------------
TotEng   =         7.9474 KinEng   =         9.6798 Temp     =         6.4785 
PotEng   =        -1.7323 E_bond   =         0.0000 E_angle  =         0.0000 
E_dihed  =         0.0000 E_impro  =         0.0000 E_vdwl   =        -1.7323 
E_coul   =         0.0000 E_long   =         0.0000 Press    =        23.0775 
---------------- Step      800 ----- CPU =      0.1216 (sec) ----------------
TotEng   =         7.9348 KinEng   =         9.6956 Temp     =         6.4891 
PotEng   =        -1.7608 E_bond   =         0.0000 E_angle  =         0.0000 
E_dihed  =         0.0000 E_impro  =         0.0000 E_vdwl   =        -1.7608 
E_coul   =         0.0000 E_long   =         0.0000 Press    =        22.7864 
---------------- Step      850 ----- CPU =      0.1291 (sec) ----------------
TotEng   =         7.9296 KinEng   =         9.5567 Temp     =         6.3961 
PotEng   =        -1.6271 E_bond   =         0.0000 E_angle  =         0.0000 
E_dihed  =         0.0000 E_impro  =         0.0000 E_vdwl   =        -1.6271 
E_coul   =         0.0000 E_long   =         0.0000 Press    =        23.1631 
---------------- Step      900 ----- CPU =      0.1367 (sec) ----------------
TotEng   =         7.9109 KinEng   =         9.1669 Temp     =         6.1352 
PotEng   =        -1.2560 E_bond   =         0.0000 E_angle  =         0.0000 
E_dihed  =         0.0000 E_impro  =         0.0000 E_vdwl   =        -1.2560 
E_coul   =         0.0000 E_long   =         0.0000 Press    =        24.2903 
---------------- Step      950 ----- CPU =      0.1439 (sec) ----------------
TotEng   =         7.8939 KinEng   =         9.8379 Temp     =         6.5843 
PotEng   =        -1.9440 E_bond   =         0.0000 E_angle  =         0.0000 
E_dihed  =         0.0000 E_impro  =         0.0000 E_vdwl   =        -1.9440 
E_coul   =         0.0000 E_long   =         0.0000 Press    =        22.0719 
---------------- Step     1000 ----- CPU =      0.1515 (sec) ----------------
TotEng   =         7.8860 KinEng   =        10.1459 Temp     =         6.7904 
PotEng   =        -2.2599 E_bond   =         0.0000 E_angle  =         0.0000 
E_dihed  =         0.0000 E_impro  =         0.0000 E_vdwl   =        -2.2599 
E_coul   =         0.0000 E_long   =         0.0000 Press    =        20.6571 
---------------- Step     1050 ----- CPU =      0.1588 (sec) ----------------
TotEng   =         7.8674 KinEng   =         9.2247 Temp     =         6.1739 
PotEng   =        -1.3573 E_bond   =         0.0000 E_angle  =         0.0000 
E_dihed  =         0.0000 E_impro  =         0.0000 E_vdwl   =        -1.3573 
E_coul   =         0.0000 E_long   =         0.0000 Press    =        24.0380 
---------------- Step     1100 ----- CPU =      0.1661 (sec) ----------------
TotEng   =         7.8650 KinEng   =         9.2651 Temp     =         6.2010 
PotEng   =        -1.4001 E_bond   =         0.0000 E_angle  =         0.0000 
E_dihed  =         0.0000 E_impro  =         0.0000 E_vdwl   =        -1.4001 
E_coul   =         0.0000 E_long   =         0.0000 Press    =        23.8999 
---------------- Step     1150 ----- CPU =      0.1731 (sec) ----------------
TotEng   =         7.8502 KinEng   =         9.5706 Temp     =         6.4054 
PotEng   =        -1.7203 E_bond   =         0.0000 E_angle  =         0.0000 
E_dihed  =         0.0000 E_impro  =         0.0000 E_vdwl   =        -1.7203 
E_coul   =         0.0000 E_long   =         0.0000 Press    =        22.9471 
---------------- Step     1200 ----- CPU =      0.1805 (sec) ----------------
TotEng   =         7.8252 KinEng   =         9.6349 Temp     =         6.4485 
PotEng   =        -1.8097 E_bond   =         0.0000 E_angle  =         0.0000 
E_dihed  =         0.0000 E_impro  =         0.0000 E_vdwl   =        -1.8097 
E_coul   =         0.0000 E_long   =         0.0000 Press    =        22.4828 
---------------- Step     1250 ----- CPU =      0.1880 (sec) ----------------
TotEng   =         7.8249 KinEng   =         8.8896 Temp     =         5.9496 
PotEng   =        -1.0647 E_bond   =         0.0000 E_angle  =         0.0000 
E_dihed  =         0.0000 E_impro  =         0.0000 E_vdwl   =        -1.0647 
E_coul   =         0.0000 E_long   =         0.0000 Press    =        24.9871 
---------------- Step     1300 ----- CPU =      0.1955 (sec) ----------------
TotEng   =         7.7972 KinEng   =         9.4517 Temp     =         6.3258 
PotEng   =        -1.6545 E_bond   =         0.0000 E_angle  =         0.0000 
E_dihed  =         0.0000 E_impro  =         0.0000 E_vdwl   =        -1.6545 
E_coul   =         0.0000 E_long   =         0.0000 Press    =        23.1125 
---------------- Step     1350 ----- CPU =      0.2027 (sec) ----------------
TotEng   =         7.8019 KinEng   =         9.6620 Temp     =         6.4666 
PotEng   =        -1.8601 E_bond   =         0.0000 E_angle  =         0.0000 
E_dihed  =         0.0000 E_impro  =         0.0000 E_vdwl   =        -1.8601 
E_coul   =         0.0000 E_long   =         0.0000 Press    =        22.3447 
---------------- Step     1400 ----- CPU =      0.2103 (sec) ----------------
TotEng   =         7.7749 KinEng   =         9.9233 Temp     =         6.6415 
PotEng   =        -2.1484 E_bond   =         0.0000 E_angle  =         0.0000 
E_dihed  =         0.0000 E_impro  =         0.0000 E_vdwl   =        -2.1484 
E_coul   =         0.0000 E_long   =         0.0000 Press    =        21.1457 
---------------- Step     1450 ----- CPU =      0.2175 (sec) ----------------
TotEng   =         7.7713 KinEng   =         9.2426 Temp     =         6.1859 
PotEng   =        -1.4713 E_bond   =         0.0000 E_angle  =         0.0000 
E_dihed  =         0.0000 E_impro  =         0.0000 E_vdwl   =        -1.4713 
E_coul   =         0.0000 E_long   =         0.0000 Press    =        23.7205 
---------------- Step     1500 ----- CPU =      0.2254 (sec) ----------------
TotEng   =         7.7540 KinEng   =         9.4292 Temp     =         6.3108 
PotEng   =        -1.6752 E_bond   =         0.0000 E_angle  =         0.0000 
E_dihed  =         0.0000 E_impro  =         0.0000 E_vdwl   =        -1.6752 
E_coul   =         0.0000 E_long   =         0.0000 Press    =        22.9911 
---------------- Step     1550 ----- CPU =      0.2326 (sec) ----------------
TotEng   =         7.7459 KinEng   =         9.2251 Temp     =         6.1742 
PotEng   =        -1.4793 E_bond   =         0.0000 E_angle  =         0.0000 
E_dihed  =         0.0000 E_impro  =         0.0000 E_vdwl   =        -1.4793 
E_coul   =         0.0000 E_long   =         0.0000 Press    =        23.7663 
---------------- Step     1600 ----- CPU =      0.2401 (sec) ----------------
TotEng   =         7.7290 KinEng   =         9.4814 Temp     =         6.3457 
PotEng   =        -1.7524 E_bond   =         0.0000 E_angle  =         0.0000 
E_dihed  =         0.0000 E_impro  =         0.0000 E_vdwl   =        -1.7524 
E_coul   =         0.0000 E_long   =         0.0000 Press    =        22.6029 
---------------- Step     1650 ----- CPU =      0.2474 (sec) ----------------
TotEng   =         7.7207 KinEng   =         9.4412 Temp     =         6.3188 
PotEng   =        -1.7205 E_bond   =         0.0000 E_angle  =         0.0000 
E_dihed  =         0.0000 E_impro  =         0.0000 E_vdwl   =        -1.7205 
E_coul   =         0.0000 E_long   =         0.0000 Press    =        22.6295 
---------------- Step     1700 ----- CPU =      0.2553 (sec) ----------------
TotEng   =         7.7115 KinEng   =         8.8823 Temp     =         5.9447 
PotEng   =        -1.1708 E_bond   =         0.0000 E_angle  =         0.0000 
E_dihed  =         0.0000 E_impro  =         0.0000 E_vdwl   =        -1.1708 
E_coul   =         0.0000 E_long   =         0.0000 Press    =        24.6401 
---------------- Step     1750 ----- CPU =      0.2626 (sec) ----------------
TotEng   =         7.6995 KinEng   =         9.2598 Temp     =         6.1974 
PotEng   =        -1.5603 E_bond   =         0.0000 E_angle  =         0.0000 
E_dihed  =         0.0000 E_impro  =         0.0000 E_vdwl   =        -1.5603 
E_coul   =         0.0000 E_long   =         0.0000 Press    =        23.2897 
---------------- Step     1800 ----- CPU =      0.2701 (sec) ----------------
TotEng   =         7.6734 KinEng   =         9.3544 Temp     =         6.2607 
PotEng   =        -1.6810 E_bond   =         0.0000 E_angle  =         0.0000 
E_dihed  =         0.0000 E_impro  =         0.0000 E_vdwl   =        -1.6810 
E_coul   =         0.0000 E_long   =         0.0000 Press    =        22.9276 
---------------- Step     1850 ----- CPU =      0.2773 (sec) ----------------
TotEng   =         7.6638 KinEng   =         9.1467 Temp     =         6.1217 
PotEng   =        -1.4829 E_bond   =         0.0000 E_angle  =         0.0000 
E_dihed  =         0.0000 E_impro  =         0.0000 E_vdwl   =        -1.4829 
E_coul   =         0.0000 E_long   =         0.0000 Press    =        23.5223 
---------------- Step     1900 ----- CPU =      0.2853 (sec) ----------------
TotEng   =         7.6568 KinEng   =         9.0342 Temp     =         6.0464 
PotEng   =        -1.3774 E_bond   =         0.0000 E_angle  =         0.0000 
E_dihed  =         0.0000 E_impro  =         0.0000 E_vdwl   =        -1.3774 
E_coul   =         0.0000 E_long   =         0.0000 Press    =        23.7748 
---------------- Step     1950 ----- CPU =      0.2926 (sec) ----------------
TotEng   =         7.6453 KinEng   =         9.3220 Temp     =         6.2391 
PotEng   =        -1.6768 E_bond   =         0.0000 E_angle  =         0.0000 
E_dihed  =         0.0000 E_impro  =         0.0000 E_vdwl   =        -1.6768 
E_coul   =         0.0000 E_long   =         0.0000 Press    =        22.7764 
---------------- Step     2000 ----- CPU =      0.3002 (sec) ----------------
TotEng   =         7.6286 KinEng   =         9.0796 Temp     =         6.0768 
PotEng   =        -1.4510 E_bond   =         0.0000 E_angle  =         0.0000 
E_dihed  =         0.0000 E_impro  =         0.0000 E_vdwl   =        -1.4510 
E_coul   =         0.0000 E_long   =         0.0000 Press    =        23.5785 
---------------- Step     2050 ----- CPU =      0.3070 (sec) ----------------
TotEng   =         7.6212 KinEng   =         9.3331 Temp     =         6.2465 
PotEng   =        -1.7118 E_bond   =         0.0000 E_angle  =         0.0000 
E_dihed  =         0.0000 E_impro  =         0.0000 E_vdwl   =        -1.7118 
E_coul   =         0.0000 E_long   =         0.0000 Press    =        22.5917 
---------------- Step     2100 ----- CPU =      0.3144 (sec) ----------------
TotEng   =         7.6133 KinEng   =         8.9754 Temp     =         6.0071 
PotEng   =        -1.3621 E_bond   =         0.0000 E_angle  =         0.0000 
E_dihed  =         0.0000 E_impro  =         0.0000 E_vdwl   =        -1.3621 
E_coul   =         0.0000 E_long   =         0.0000 Press    =        23.8979 
---------------- Step     2150 ----- CPU =      0.3217 (sec) ----------------
TotEng   =         7.5935 KinEng   =         9.5887 Temp     =         6.4176 
PotEng   =        -1.9953 E_bond   =         0.0000 E_angle  =         0.0000 
E_dihed  =         0.0000 E_impro  =         0.0000 E_vdwl   =        -1.9953 
E_coul   =         0.0000 E_long   =         0.0000 Press    =        21.6732 
---------------- Step     2200 ----- CPU =      0.3291 (sec) ----------------
TotEng   =         7.5811 KinEng   =         9.1311 Temp     =         6.1113 
PotEng   =        -1.5500 E_bond   =         0.0000 E_angle  =         0.0000 
E_dihed  =         0.0000 E_impro  =         0.0000 E_vdwl   =        -1.5500 
E_coul   =         0.0000 E_long   =         0.0000 Press    =        23.1690 
---------------- Step     2250 ----- CPU =      0.3362 (sec) ----------------
TotEng   =         7.5592 KinEng   =         9.2018 Temp     =         6.1586 
PotEng   =        -1.6426 E_bond   =         0.0000 E_angle  =         0.0000 
E_dihed  =         0.0000 E_impro  =         0.0000 E_vdwl   =        -1.6426 
E_coul   =         0.0000 E_long   =         0.0000 Press    =        23.1102 
---------------- Step     2300 ----- CPU =      0.3436 (sec) ----------------
TotEng   =         7.5495 KinEng   =         9.2097 Temp     =         6.1639 
PotEng   =        -1.6603 E_bond   =         0.0000 E_angle  =         0.0000 
E_dihed  =         0.0000 E_impro  =         0.0000 E_vdwl   =        -1.6603 
E_coul   =         0.0000 E_long   =         0.0000 Press    =        22.8309 
---------------- Step     2350 ----- CPU =      0.3511 (sec) ----------------
TotEng   =         7.5305 KinEng   =         9.6657 Temp     =         6.4691 
PotEng   =        -2.1352 E_bond   =         0.0000 E_angle  =         0.0000 
E_dihed  =         0.0000 E_impro  =         0.0000 E_vdwl   =        -2.1352 
E_coul   =         0.0000 E_long   =         0.0000 Press    =        21.0916 
---------------- Step     2400 ----- CPU =      0.3586 (sec) ----------------
TotEng   =         7.5305 KinEng   =         9.2181 Temp     =         6.1695 
PotEng   =        -1.6876 E_bond   =         0.0000 E_angle  =         0.0000 
E_dihed  =         0.0000 E_impro  =         0.0000 E_vdwl   =        -1.6876 
E_coul   =         0.0000 E_long   =         0.0000 Press    =        22.8038 
---------------- Step     2450 ----- CPU =      0.3658 (sec) ----------------
TotEng   =         7.5218 KinEng   =         8.8613 Temp     =         5.9307 
PotEng   =        -1.3395 E_bond   =         0.0000 E_angle  =         0.0000 
E_dihed  =         0.0000 E_impro  =         0.0000 E_vdwl   =        -1.3395 
E_coul   =         0.0000 E_long   =         0.0000 Press    =        24.1003 
---------------- Step     2500 ----- CPU =      0.3733 (sec) ----------------
TotEng   =         7.5052 KinEng   =         9.3903 Temp     =         6.2847 
PotEng   =        -1.8851 E_bond   =         0.0000 E_angle  =         0.0000 
E_dihed  =         0.0000 E_impro  =         0.0000 E_vdwl   =        -1.8851 
E_coul   =         0.0000 E_long   =         0.0000 Press    =        22.1614 
---------------- Step     2550 ----- CPU =      0.3808 (sec) ----------------
TotEng   =         7.4994 KinEng   =         8.8446 Temp     =         5.9195 
PotEng   =        -1.3452 E_bond   =         0.0000 E_angle  =         0.0000 
E_dihed  =         0.0000 E_impro  =         0.0000 E_vdwl   =        -1.3452 
E_coul   =         0.0000 E_long   =         0.0000 Press    =        23.8163 
---------------- Step     2600 ----- CPU =      0.3884 (sec) ----------------
TotEng   =         7.4825 KinEng   =         8.9778 Temp     =         6.0087 
PotEng   =        -1.4953 E_bond   =         0.0000 E_angle  =         0.0000 
E_dihed  =         0.0000 E_impro  =         0.0000 E_vdwl   =        -1.4953 
E_coul   =         0.0000 E_long   =         0.0000 Press    =        23.4480 
---------------- Step     2650 ----- CPU =      0.3957 (sec) ----------------
TotEng   =         7.4743 KinEng   =         9.2506 Temp     =         6.1912 
PotEng   =        -1.7763 E_bond   =         0.0000 E_angle  =         0.0000 
E_dihed  =         0.0000 E_impro  =         0.0000 E_vdwl   =        -1.7763 
E_coul   =         0.0000 E_long   =         0.0000 Press    =        22.2783 
---------------- Step     2700 ----- CPU =      0.4033 (sec) ----------------
TotEng   =         7.4626 KinEng   =         8.8363 Temp     =         5.9140 
PotEng   =        -1.3737 E_bond   =         0.0000 E_angle  =         0.0000 
E_dihed  =         0.0000 E_impro  =         0.0000 E_vdwl   =        -1.3737 
E_coul   =         0.0000 E_long   =         0.0000 Press    =        23.7338 
---------------- Step     2750 ----- CPU =      0.4105 (sec) ----------------
TotEng   =         7.4515 KinEng   =         9.5755 Temp     =         6.4087 
PotEng   =        -2.1241 E_bond   =         0.0000 E_angle  =         0.0000 
E_dihed  =         0.0000 E_impro  =         0.0000 E_vdwl   =        -2.1241 
E_coul   =         0.0000 E_long   =         0.0000 Press    =        21.1200 
---------------- Step     2800 ----- CPU =      0.4186 (sec) ----------------
TotEng   =         7.4299 KinEng   =         9.5466 Temp     =         6.3894 
PotEng   =        -2.1167 E_bond   =         0.0000 E_angle  =         0.0000 
E_dihed  =         0.0000 E_impro  =         0.0000 E_vdwl   =        -2.1167 
E_coul   =         0.0000 E_long   =         0.0000 Press    =        21.1294 
---------------- Step     2850 ----- CPU =      0.4258 (sec) ----------------
TotEng   =         7.4237 KinEng   =         9.2565 Temp     =         6.1952 
PotEng   =        -1.8328 E_bond   =         0.0000 E_angle  =         0.0000 
E_dihed  =         0.0000 E_impro  =         0.0000 E_vdwl   =        -1.8328 
E_coul   =         0.0000 E_long   =         0.0000 Press    =        22.1122 
---------------- Step     2900 ----- CPU =      0.4334 (sec) ----------------
TotEng   =         7.4108 KinEng   =         9.1723 Temp     =         6.1388 
PotEng   =        -1.7615 E_bond   =         0.0000 E_angle  =         0.0000 
E_dihed  =         0.0000 E_impro  =         0.0000 E_vdwl   =        -1.7615 
E_coul   =         0.0000 E_long   =         0.0000 Press    =        22.3201 
---------------- Step     2950 ----- CPU =      0.4407 (sec) ----------------
TotEng   =         7.4010 KinEng   =         9.0000 Temp     =         6.0235 
PotEng   =        -1.5989 E_bond   =         0.0000 E_angle  =         0.0000 
E_dihed  =         0.0000 E_impro  =         0.0000 E_vdwl   =        -1.5989 
E_coul   =         0.0000 E_long   =         0.0000 Press    =        23.2219 
---------------- Step     3000 ----- CPU =      0.4487 (sec) ----------------
TotEng   =         7.3838 KinEng   =         9.1927 Temp     =         6.1525 
PotEng   =        -1.8090 E_bond   =         0.0000 E_angle  =         0.0000 
E_dihed  =         0.0000 E_impro  =         0.0000 E_vdwl   =        -1.8090 
E_coul   =         0.0000 E_long   =         0.0000 Press    =        22.4261 
---------------- Step     3050 ----- CPU =      0.4556 (sec) ----------------
TotEng   =         7.3636 KinEng   =         9.5794 Temp     =         6.4113 
PotEng   =        -2.2158 E_bond   =         0.0000 E_angle  =         0.0000 
E_dihed  =         0.0000 E_impro  =         0.0000 E_vdwl   =        -2.2158 
E_coul   =         0.0000 E_long   =         0.0000 Press    =        20.7879 
---------------- Step     3100 ----- CPU =      0.4629 (sec) ----------------
TotEng   =         7.3586 KinEng   =         9.0489 Temp     =         6.0563 
PotEng   =        -1.6903 E_bond   =         0.0000 E_angle  =         0.0000 
E_dihed  =         0.0000 E_impro  =         0.0000 E_vdwl   =        -1.6903 
E_coul   =         0.0000 E_long   =         0.0000 Press    =        22.7088 
---------------- Step     3150 ----- CPU =      0.4700 (sec) ----------------
TotEng   =         7.3501 KinEng   =         9.0068 Temp     =         6.0281 
PotEng   =        -1.6567 E_bond   =         0.0000 E_angle  =         0.0000 
E_dihed  =         0.0000 E_impro  =         0.0000 E_vdwl   =        -1.6567 
E_coul   =         0.0000 E_long   =         0.0000 Press    =        22.7750 
---------------- Step     3200 ----- CPU =      0.4778 (sec) ----------------
TotEng   =         7.3351 KinEng   =         9.3799 Temp     =         6.2778 
PotEng   =        -2.0448 E_bond   =         0.0000 E_angle  =         0.0000 
E_dihed  =         0.0000 E_impro  =         0.0000 E_vdwl   =        -2.0448 
E_coul   =         0.0000 E_long   =         0.0000 Press    =        21.2745 
---------------- Step     3250 ----- CPU =      0.4850 (sec) ----------------
TotEng   =         7.3193 KinEng   =         9.2512 Temp     =         6.1916 
PotEng   =        -1.9318 E_bond   =         0.0000 E_angle  =         0.0000 
E_dihed  =         0.0000 E_impro  =         0.0000 E_vdwl   =        -1.9318 
E_coul   =         0.0000 E_long   =         0.0000 Press    =        21.9378 
---------------- Step     3300 ----- CPU =      0.4925 (sec) ----------------
TotEng   =         7.3126 KinEng   =         9.0744 Temp     =         6.0733 
PotEng   =        -1.7617 E_bond   =         0.0000 E_angle  =         0.0000 
E_dihed  =         0.0000 E_impro  =         0.0000 E_vdwl   =        -1.7617 
E_coul   =         0.0000 E_long   =         0.0000 Press    =        22.3312 
---------------- Step     3350 ----- CPU =      0.4997 (sec) ----------------
TotEng   =         7.3013 KinEng   =         9.1650 Temp     =         6.1340 
PotEng   =        -1.8637 E_bond   =         0.0000 E_angle  =         0.0000 
E_dihed  =         0.0000 E_impro  =         0.0000 E_vdwl   =        -1.8637 
E_coul   =         0.0000 E_long   =         0.0000 Press    =        21.9575 
---------------- Step     3400 ----- CPU =      0.5073 (sec) ----------------
TotEng   =         7.2813 KinEng   =         8.9138 Temp     =         5.9658 
PotEng   =        -1.6325 E_bond   =         0.0000 E_angle  =         0.0000 
E_dihed  =         0.0000 E_impro  =         0.0000 E_vdwl   =        -1.6325 
E_coul   =         0.0000 E_long   =         0.0000 Press    =        22.5798 
---------------- Step     3450 ----- CPU =      0.5149 (sec) ----------------
TotEng   =         7.2791 KinEng   =         9.0114 Temp     =         6.0312 
PotEng   =        -1.7323 E_bond   =         0.0000 E_angle  =         0.0000 
E_dihed  =         0.0000 E_impro  =         0.0000 E_vdwl   =        -1.7323 
E_coul   =         0.0000 E_long   =         0.0000 Press    =        22.3385 
---------------- Step     3500 ----- CPU =      0.5224 (sec) ----------------
TotEng   =         7.2663 KinEng   =         8.5340 Temp     =         5.7116 
PotEng   =        -1.2677 E_bond   =         0.0000 E_angle  =         0.0000 
E_dihed  =         0.0000 E_impro  =         0.0000 E_vdwl   =        -1.2677 
E_coul   =         0.0000 E_long   =         0.0000 Press    =        24.0243 
---------------- Step     3550 ----- CPU =      0.5296 (sec) ----------------
TotEng   =         7.2527 KinEng   =         9.0203 Temp     =         6.0371 
PotEng   =        -1.7676 E_bond   =         0.0000 E_angle  =         0.0000 
E_dihed  =         0.0000 E_impro  =         0.0000 E_vdwl   =        -1.7676 
E_coul   =         0.0000 E_long   =         0.0000 Press    =        22.2440 
---------------- Step     3600 ----- CPU =      0.5371 (sec) ----------------
TotEng   =         7.2367 KinEng   =         9.0389 Temp     =         6.0496 
PotEng   =        -1.8022 E_bond   =         0.0000 E_angle  =         0.0000 
E_dihed  =         0.0000 E_impro  =         0.0000 E_vdwl   =        -1.8022 
E_coul   =         0.0000 E_long   =         0.0000 Press    =        22.2655 
---------------- Step     3650 ----- CPU =      0.5448 (sec) ----------------
TotEng   =         7.2313 KinEng   =         8.7214 Temp     =         5.8371 
PotEng   =        -1.4900 E_bond   =         0.0000 E_angle  =         0.0000 
E_dihed  =         0.0000 E_impro  =         0.0000 E_vdwl   =        -1.4900 
E_coul   =         0.0000 E_long   =         0.0000 Press    =        23.1915 
---------------- Step     3700 ----- CPU =      0.5524 (sec) ----------------
TotEng   =         7.2146 KinEng   =         9.1009 Temp     =         6.0911 
PotEng   =        -1.8863 E_bond   =         0.0000 E_angle  =         0.0000 
E_dihed  =         0.0000 E_impro  =         0.0000 E_vdwl   =        -1.8863 
E_coul   =         0.0000 E_long   =         0.0000 Press    =        21.6062 
---------------- Step     3750 ----- CPU =      0.5601 (sec) ----------------
TotEng   =         7.2018 KinEng   =         9.1094 Temp     =         6.0968 
PotEng   =        -1.9077 E_bond   =         0.0000 E_angle  =         0.0000 
E_dihed  =         0.0000 E_impro  =         0.0000 E_vdwl   =        -1.9077 
E_coul   =         0.0000 E_long   =         0.0000 Press    =        21.8572 
---------------- Step     3800 ----- CPU =      0.5677 (sec) ----------------
TotEng   =         7.1913 KinEng   =         9.2793 Temp     =         6.2104 
PotEng   =        -2.0880 E_bond   =         0.0000 E_angle  =         0.0000 
E_dihed  =         0.0000 E_impro  =         0.0000 E_vdwl   =        -2.0880 
E_coul   =         0.0000 E_long   =         0.0000 Press    =        20.7767 
---------------- Step     3850 ----- CPU =      0.5753 (sec) ----------------
TotEng   =         7.1813 KinEng   =         9.1215 Temp     =         6.1049 
PotEng   =        -1.9402 E_bond   =         0.0000 E_angle  =         0.0000 
E_dihed  =         0.0000 E_impro  =         0.0000 E_vdwl   =        -1.9402 
E_coul   =         0.0000 E_long   =         0.0000 Press    =        21.9218 
---------------- Step     3900 ----- CPU =      0.5833 (sec) ----------------
TotEng   =         7.1553 KinEng   =         9.1206 Temp     =         6.1042 
PotEng   =        -1.9653 E_bond   =         0.0000 E_angle  =         0.0000 
E_dihed  =         0.0000 E_impro  =         0.0000 E_vdwl   =        -1.9653 
E_coul   =         0.0000 E_long   =         0.0000 Press    =        21.7990 
---------------- Step     3950 ----- CPU =      0.5906 (sec) ----------------
TotEng   =         7.1524 KinEng   =         9.3445 Temp     =         6.2541 
PotEng   =        -2.1921 E_bond   =         0.0000 E_angle  =         0.0000 
E_dihed  =         0.0000 E_impro  =         0.0000 E_vdwl   =        -2.1921 
E_coul   =         0.0000 E_long   =         0.0000 Press    =        20.7220 
---------------- Step     4000 ----- CPU =      0.5983 (sec) ----------------
TotEng   =         7.1298 KinEng   =         9.5021 Temp     =         6.3596 
PotEng   =        -2.3723 E_bond   =         0.0000 E_angle  =         0.0000 
E_dihed  =         0.0000 E_impro  =         0.0000 E_vdwl   =        -2.3723 
E_coul   =         0.0000 E_long   =         0.0000 Press    =        20.2073 
---------------- Step     4050 ----- CPU =      0.6052 (sec) ----------------
TotEng   =         7.1412 KinEng   =         8.7427 Temp     =         5.8513 
PotEng   =        -1.6015 E_bond   =         0.0000 E_angle  =         0.0000 
E_dihed  =         0.0000 E_impro  =         0.0000 E_vdwl   =        -1.6015 
E_coul   =         0.0000 E_long   =         0.0000 Press    =        22.7138 
---------------- Step     4100 ----- CPU =      0.6128 (sec) ----------------
TotEng   =         7.1164 KinEng   =         9.0096 Temp     =         6.0300 
PotEng   =        -1.8933 E_bond   =         0.0000 E_angle  =         0.0000 
E_dihed  =         0.0000 E_impro  =         0.0000 E_vdwl   =        -1.8933 
E_coul   =         0.0000 E_long   =         0.0000 Press    =        21.7254 
---------------- Step     4150 ----- CPU =      0.6199 (sec) ----------------
TotEng   =         7.1051 KinEng   =         9.0763 Temp     =         6.0746 
PotEng   =        -1.9712 E_bond   =         0.0000 E_angle  =         0.0000 
E_dihed  =         0.0000 E_impro  =         0.0000 E_vdwl   =        -1.9712 
E_coul   =         0.0000 E_long   =         0.0000 Press    =        21.5062 
---------------- Step     4200 ----- CPU =      0.6273 (sec) ----------------
TotEng   =         7.0946 KinEng   =         8.4941 Temp     =         5.6849 
PotEng   =        -1.3994 E_bond   =         0.0000 E_angle  =         0.0000 
E_dihed  =         0.0000 E_impro  =         0.0000 E_vdwl   =        -1.3994 
E_coul   =         0.0000 E_long   =         0.0000 Press    =        23.6491 
---------------- Step     4250 ----- CPU =      0.6345 (sec) ----------------
TotEng   =         7.0899 KinEng   =         8.9985 Temp     =         6.0225 
PotEng   =        -1.9086 E_bond   =         0.0000 E_angle  =         0.0000 
E_dihed  =         0.0000 E_impro  =         0.0000 E_vdwl   =        -1.9086 
E_coul   =         0.0000 E_long   =         0.0000 Press    =        21.9234 
---------------- Step     4300 ----- CPU =      0.6424 (sec) ----------------
TotEng   =         7.0662 KinEng   =         8.6527 Temp     =         5.7911 
PotEng   =        -1.5866 E_bond   =         0.0000 E_angle  =         0.0000 
E_dihed  =         0.0000 E_impro  =         0.0000 E_vdwl   =        -1.5866 
E_coul   =         0.0000 E_long   =         0.0000 Press    =        23.2793 
---------------- Step     4350 ----- CPU =      0.6496 (sec) ----------------
TotEng   =         7.0543 KinEng   =         8.6968 Temp     =         5.8206 
PotEng   =        -1.6424 E_bond   =         0.0000 E_angle  =         0.0000 
E_dihed  =         0.0000 E_impro  =         0.0000 E_vdwl   =        -1.6424 
E_coul   =         0.0000 E_long   =         0.0000 Press    =        22.7326 
---------------- Step     4400 ----- CPU =      0.6571 (sec) ----------------
TotEng   =         7.0405 KinEng   =         8.8394 Temp     =         5.9161 
PotEng   =        -1.7990 E_bond   =         0.0000 E_angle  =         0.0000 
E_dihed  =         0.0000 E_impro  =         0.0000 E_vdwl   =        -1.7990 
E_coul   =         0.0000 E_long   =         0.0000 Press    =        22.1170 
---------------- Step     4450 ----- CPU =      0.6643 (sec) ----------------
TotEng   =         7.0309 KinEng   =         8.9352 Temp     =         5.9802 
PotEng   =        -1.9043 E_bond   =         0.0000 E_angle  =         0.0000 
E_dihed  =         0.0000 E_impro  =         0.0000 E_vdwl   =        -1.9043 
E_coul   =         0.0000 E_long   =         0.0000 Press    =        21.8549 
---------------- Step     4500 ----- CPU =      0.6723 (sec) ----------------
TotEng   =         7.0134 KinEng   =         8.9414 Temp     =         5.9843 
PotEng   =        -1.9279 E_bond   =         0.0000 E_angle  =         0.0000 
E_dihed  =         0.0000 E_impro  =         0.0000 E_vdwl   =        -1.9279 
E_coul   =         0.0000 E_long   =         0.0000 Press    =        21.6689 
---------------- Step     4550 ----- CPU =      0.6795 (sec) ----------------
TotEng   =         7.0110 KinEng   =         8.9573 Temp     =         5.9950 
PotEng   =        -1.9463 E_bond   =         0.0000 E_angle  =         0.0000 
E_dihed  =         0.0000 E_impro  =         0.0000 E_vdwl   =        -1.9463 
E_coul   =         0.0000 E_long   =         0.0000 Press    =        21.4087 
---------------- Step     4600 ----- CPU =      0.6871 (sec) ----------------
TotEng   =         6.9906 KinEng   =         9.4870 Temp     =         6.3495 
PotEng   =        -2.4964 E_bond   =         0.0000 E_angle  =         0.0000 
E_dihed  =         0.0000 E_impro  =         0.0000 E_vdwl   =        -2.4964 
E_coul   =         0.0000 E_long   =         0.0000 Press    =        19.5845 
---------------- Step     4650 ----- CPU =      0.6943 (sec) ----------------
TotEng   =         6.9878 KinEng   =         8.8384 Temp     =         5.9153 
PotEng   =        -1.8506 E_bond   =         0.0000 E_angle  =         0.0000 
E_dihed  =         0.0000 E_impro  =         0.0000 E_vdwl   =        -1.8506 
E_coul   =         0.0000 E_long   =         0.0000 Press    =        22.0761 
---------------- Step     4700 ----- CPU =      0.7023 (sec) ----------------
TotEng   =         6.9748 KinEng   =         9.1367 Temp     =         6.1150 
PotEng   =        -2.1619 E_bond   =         0.0000 E_angle  =         0.0000 
E_dihed  =         0.0000 E_impro  =         0.0000 E_vdwl   =        -2.1619 
E_coul   =         0.0000 E_long   =         0.0000 Press    =        20.7290 
---------------- Step     4750 ----- CPU =      0.7096 (sec) ----------------
TotEng   =         6.9711 KinEng   =         8.6555 Temp     =         5.7929 
PotEng   =        -1.6843 E_bond   =         0.0000 E_angle  =         0.0000 
E_dihed  =         0.0000 E_impro  =         0.0000 E_vdwl   =        -1.6843 
E_coul   =         0.0000 E_long   =         0.0000 Press    =        22.4294 
---------------- Step     4800 ----- CPU =      0.7172 (sec) ----------------
TotEng   =         6.9549 KinEng   =         8.8590 Temp     =         5.9292 
PotEng   =        -1.9041 E_bond   =         0.0000 E_angle  =         0.0000 
E_dihed  =         0.0000 E_impro  =         0.0000 E_vdwl   =        -1.9041 
E_coul   =         0.0000 E_long   =         0.0000 Press    =        21.8324 
---------------- Step     4850 ----- CPU =      0.7245 (sec) ----------------
TotEng   =         6.9553 KinEng   =         8.7194 Temp     =         5.8357 
PotEng   =        -1.7641 E_bond   =         0.0000 E_angle  =         0.0000 
E_dihed  =         0.0000 E_impro  =         0.0000 E_vdwl   =        -1.7641 
E_coul   =         0.0000 E_long   =         0.0000 Press    =        22.0279 
---------------- Step     4900 ----- CPU =      0.7322 (sec) ----------------
TotEng   =         6.9361 KinEng   =         8.7620 Temp     =         5.8643 
PotEng   =        -1.8259 E_bond   =         0.0000 E_angle  =         0.0000 
E_dihed  =         0.0000 E_impro  =         0.0000 E_vdwl   =        -1.8259 
E_coul   =         0.0000 E_long   =         0.0000 Press    =        21.9185 
---------------- Step     4950 ----- CPU =      0.7401 (sec) ----------------
TotEng   =         6.9271 KinEng   =         8.9445 Temp     =         5.9864 
PotEng   =        -2.0174 E_bond   =         0.0000 E_angle  =         0.0000 
E_dihed  =         0.0000 E_impro  =         0.0000 E_vdwl   =        -2.0174 
E_coul   =         0.0000 E_long   =         0.0000 Press    =        21.3977 
---------------- Step     5000 ----- CPU =      0.7477 (sec) ----------------
TotEng   =         6.9063 KinEng   =         8.9713 Temp     =         6.0044 
PotEng   =        -2.0650 E_bond   =         0.0000 E_angle  =         0.0000 
E_dihed  =         0.0000 E_impro  =         0.0000 E_vdwl   =        -2.0650 
E_coul   =         0.0000 E_long   =         0.0000 Press    =        21.0705 
ERROR: Lost atoms: original 256 current 255 (../thermo.cpp:442)
Last command: run		10000
