LAMMPS (16 Mar 2018)
Lattice spacing in x,y,z = 1.6796 1.6796 1.6796
Created orthogonal box = (0 0 0) to (6.71838 6.71838 6.71838)
  1 by 1 by 1 MPI processor grid
Created 256 atoms
  Time spent = 0.000601053 secs
1 atoms in group 1
Neighbor list info ...
  update every 20 steps, delay 0 steps, check no
  max neighbors/atom: 2000, page size: 100000
  master list distance cutoff = 2.8
  ghost atom cutoff = 2.8
  binsize = 1.4, bins = 5 5 5
  1 neighbor lists, perpetual/occasional/extra = 1 0 0
  (1) pair lj/cut, perpetual
      attributes: half, newton on
      pair build: half/bin/atomonly/newton
      stencil: half/bin/3d/newton
      bin: standard
Setting up Verlet run ...
  Unit style    : lj
  Current step  : 0
  Time step     : 0.005
Per MPI rank memory allocation (min/avg/max) = 3.628 | 3.628 | 3.628 Mbytes
---------------- Step        0 ----- CPU =      0.0000 (sec) ----------------
TotEng   =         8.1680 KinEng   =        14.9414 Temp     =        10.0000 
PotEng   =        -6.7734 E_bond   =         0.0000 E_angle  =         0.0000 
E_dihed  =         0.0000 E_impro  =         0.0000 E_vdwl   =        -6.7734 
E_coul   =         0.0000 E_long   =         0.0000 Press    =         2.1737 
---------------- Step       50 ----- CPU =      0.0068 (sec) ----------------
TotEng   =         8.4117 KinEng   =         9.8944 Temp     =         6.6221 
PotEng   =        -1.4827 E_bond   =         0.0000 E_angle  =         0.0000 
E_dihed  =         0.0000 E_impro  =         0.0000 E_vdwl   =        -1.4827 
E_coul   =         0.0000 E_long   =         0.0000 Press    =        23.9914 
---------------- Step      100 ----- CPU =      0.0141 (sec) ----------------
TotEng   =         9.0841 KinEng   =        10.5862 Temp     =         7.0852 
PotEng   =        -1.5022 E_bond   =         0.0000 E_angle  =         0.0000 
E_dihed  =         0.0000 E_impro  =         0.0000 E_vdwl   =        -1.5022 
E_coul   =         0.0000 E_long   =         0.0000 Press    =        24.1679 
---------------- Step      150 ----- CPU =      0.0210 (sec) ----------------
TotEng   =         9.6315 KinEng   =        10.5609 Temp     =         7.0682 
PotEng   =        -0.9294 E_bond   =         0.0000 E_angle  =         0.0000 
E_dihed  =         0.0000 E_impro  =         0.0000 E_vdwl   =        -0.9294 
E_coul   =         0.0000 E_long   =         0.0000 Press    =        26.5973 
---------------- Step      200 ----- CPU =      0.0283 (sec) ----------------
TotEng   =         9.9177 KinEng   =        10.4864 Temp     =         7.0184 
PotEng   =        -0.5688 E_bond   =         0.0000 E_angle  =         0.0000 
E_dihed  =         0.0000 E_impro  =         0.0000 E_vdwl   =        -0.5688 
E_coul   =         0.0000 E_long   =         0.0000 Press    =        27.8328 
---------------- Step      250 ----- CPU =      0.0353 (sec) ----------------
TotEng   =        10.5003 KinEng   =        11.0826 Temp     =         7.4173 
PotEng   =        -0.5823 E_bond   =         0.0000 E_angle  =         0.0000 
E_dihed  =         0.0000 E_impro  =         0.0000 E_vdwl   =        -0.5823 
E_coul   =         0.0000 E_long   =         0.0000 Press    =        28.3089 
---------------- Step      300 ----- CPU =      0.0426 (sec) ----------------
TotEng   =        10.9631 KinEng   =        11.4632 Temp     =         7.6721 
PotEng   =        -0.5001 E_bond   =         0.0000 E_angle  =         0.0000 
E_dihed  =         0.0000 E_impro  =         0.0000 E_vdwl   =        -0.5001 
E_coul   =         0.0000 E_long   =         0.0000 Press    =        28.7788 
---------------- Step      350 ----- CPU =      0.0497 (sec) ----------------
TotEng   =        11.4375 KinEng   =        12.1712 Temp     =         8.1459 
PotEng   =        -0.7337 E_bond   =         0.0000 E_angle  =         0.0000 
E_dihed  =         0.0000 E_impro  =         0.0000 E_vdwl   =        -0.7337 
E_coul   =         0.0000 E_long   =         0.0000 Press    =        28.1346 
---------------- Step      400 ----- CPU =      0.0571 (sec) ----------------
TotEng   =        12.1279 KinEng   =        12.9469 Temp     =         8.6651 
PotEng   =        -0.8190 E_bond   =         0.0000 E_angle  =         0.0000 
E_dihed  =         0.0000 E_impro  =         0.0000 E_vdwl   =        -0.8190 
E_coul   =         0.0000 E_long   =         0.0000 Press    =        28.2198 
---------------- Step      450 ----- CPU =      0.0642 (sec) ----------------
TotEng   =        12.5648 KinEng   =        13.8754 Temp     =         9.2866 
PotEng   =        -1.3106 E_bond   =         0.0000 E_angle  =         0.0000 
E_dihed  =         0.0000 E_impro  =         0.0000 E_vdwl   =        -1.3106 
E_coul   =         0.0000 E_long   =         0.0000 Press    =        26.8725 
---------------- Step      500 ----- CPU =      0.0716 (sec) ----------------
TotEng   =        13.4349 KinEng   =        13.9162 Temp     =         9.3139 
PotEng   =        -0.4814 E_bond   =         0.0000 E_angle  =         0.0000 
E_dihed  =         0.0000 E_impro  =         0.0000 E_vdwl   =        -0.4814 
E_coul   =         0.0000 E_long   =         0.0000 Press    =        30.5638 
---------------- Step      550 ----- CPU =      0.0787 (sec) ----------------
TotEng   =        13.7923 KinEng   =        13.9864 Temp     =         9.3608 
PotEng   =        -0.1941 E_bond   =         0.0000 E_angle  =         0.0000 
E_dihed  =         0.0000 E_impro  =         0.0000 E_vdwl   =        -0.1941 
E_coul   =         0.0000 E_long   =         0.0000 Press    =        31.5672 
---------------- Step      600 ----- CPU =      0.0862 (sec) ----------------
TotEng   =        14.4523 KinEng   =        14.8465 Temp     =         9.9365 
PotEng   =        -0.3942 E_bond   =         0.0000 E_angle  =         0.0000 
E_dihed  =         0.0000 E_impro  =         0.0000 E_vdwl   =        -0.3942 
E_coul   =         0.0000 E_long   =         0.0000 Press    =        31.0220 
---------------- Step      650 ----- CPU =      0.0933 (sec) ----------------
TotEng   =        15.0477 KinEng   =        14.6289 Temp     =         9.7909 
PotEng   =         0.4187 E_bond   =         0.0000 E_angle  =         0.0000 
E_dihed  =         0.0000 E_impro  =         0.0000 E_vdwl   =         0.4187 
E_coul   =         0.0000 E_long   =         0.0000 Press    =        34.5463 
---------------- Step      700 ----- CPU =      0.1008 (sec) ----------------
TotEng   =        15.5911 KinEng   =        15.3004 Temp     =        10.2403 
PotEng   =         0.2908 E_bond   =         0.0000 E_angle  =         0.0000 
E_dihed  =         0.0000 E_impro  =         0.0000 E_vdwl   =         0.2908 
E_coul   =         0.0000 E_long   =         0.0000 Press    =        34.1562 
---------------- Step      750 ----- CPU =      0.1080 (sec) ----------------
TotEng   =        15.9991 KinEng   =        15.1636 Temp     =        10.1487 
PotEng   =         0.8354 E_bond   =         0.0000 E_angle  =         0.0000 
E_dihed  =         0.0000 E_impro  =         0.0000 E_vdwl   =         0.8354 
E_coul   =         0.0000 E_long   =         0.0000 Press    =        36.0006 
---------------- Step      800 ----- CPU =      0.1155 (sec) ----------------
TotEng   =        16.6463 KinEng   =        16.7645 Temp     =        11.2202 
PotEng   =        -0.1182 E_bond   =         0.0000 E_angle  =         0.0000 
E_dihed  =         0.0000 E_impro  =         0.0000 E_vdwl   =        -0.1182 
E_coul   =         0.0000 E_long   =         0.0000 Press    =        33.3753 
---------------- Step      850 ----- CPU =      0.1226 (sec) ----------------
TotEng   =        17.1954 KinEng   =        16.9183 Temp     =        11.3231 
PotEng   =         0.2771 E_bond   =         0.0000 E_angle  =         0.0000 
E_dihed  =         0.0000 E_impro  =         0.0000 E_vdwl   =         0.2771 
E_coul   =         0.0000 E_long   =         0.0000 Press    =        34.9656 
---------------- Step      900 ----- CPU =      0.1301 (sec) ----------------
TotEng   =        18.3965 KinEng   =        18.0007 Temp     =        12.0476 
PotEng   =         0.3958 E_bond   =         0.0000 E_angle  =         0.0000 
E_dihed  =         0.0000 E_impro  =         0.0000 E_vdwl   =         0.3958 
E_coul   =         0.0000 E_long   =         0.0000 Press    =        36.1463 
---------------- Step      950 ----- CPU =      0.1373 (sec) ----------------
TotEng   =        18.9077 KinEng   =        17.9952 Temp     =        12.0438 
PotEng   =         0.9125 E_bond   =         0.0000 E_angle  =         0.0000 
E_dihed  =         0.0000 E_impro  =         0.0000 E_vdwl   =         0.9125 
E_coul   =         0.0000 E_long   =         0.0000 Press    =        38.0660 
---------------- Step     1000 ----- CPU =      0.1447 (sec) ----------------
TotEng   =        19.7687 KinEng   =        18.6942 Temp     =        12.5117 
PotEng   =         1.0745 E_bond   =         0.0000 E_angle  =         0.0000 
E_dihed  =         0.0000 E_impro  =         0.0000 E_vdwl   =         1.0745 
E_coul   =         0.0000 E_long   =         0.0000 Press    =        39.0365 
---------------- Step     1050 ----- CPU =      0.1515 (sec) ----------------
TotEng   =        20.4483 KinEng   =        19.6487 Temp     =        13.1505 
PotEng   =         0.7996 E_bond   =         0.0000 E_angle  =         0.0000 
E_dihed  =         0.0000 E_impro  =         0.0000 E_vdwl   =         0.7996 
E_coul   =         0.0000 E_long   =         0.0000 Press    =        38.3463 
---------------- Step     1100 ----- CPU =      0.1588 (sec) ----------------
TotEng   =        21.0633 KinEng   =        19.6191 Temp     =        13.1307 
PotEng   =         1.4443 E_bond   =         0.0000 E_angle  =         0.0000 
E_dihed  =         0.0000 E_impro  =         0.0000 E_vdwl   =         1.4443 
E_coul   =         0.0000 E_long   =         0.0000 Press    =        41.1360 
---------------- Step     1150 ----- CPU =      0.1657 (sec) ----------------
TotEng   =        21.5517 KinEng   =        20.5009 Temp     =        13.7209 
PotEng   =         1.0507 E_bond   =         0.0000 E_angle  =         0.0000 
E_dihed  =         0.0000 E_impro  =         0.0000 E_vdwl   =         1.0507 
E_coul   =         0.0000 E_long   =         0.0000 Press    =        40.0837 
---------------- Step     1200 ----- CPU =      0.1731 (sec) ----------------
TotEng   =        22.0563 KinEng   =        21.3313 Temp     =        14.2766 
PotEng   =         0.7249 E_bond   =         0.0000 E_angle  =         0.0000 
E_dihed  =         0.0000 E_impro  =         0.0000 E_vdwl   =         0.7249 
E_coul   =         0.0000 E_long   =         0.0000 Press    =        39.5237 
---------------- Step     1250 ----- CPU =      0.1801 (sec) ----------------
TotEng   =        22.8518 KinEng   =        21.8949 Temp     =        14.6539 
PotEng   =         0.9569 E_bond   =         0.0000 E_angle  =         0.0000 
E_dihed  =         0.0000 E_impro  =         0.0000 E_vdwl   =         0.9569 
E_coul   =         0.0000 E_long   =         0.0000 Press    =        40.8135 
---------------- Step     1300 ----- CPU =      0.1875 (sec) ----------------
TotEng   =        23.4098 KinEng   =        22.2772 Temp     =        14.9097 
PotEng   =         1.1326 E_bond   =         0.0000 E_angle  =         0.0000 
E_dihed  =         0.0000 E_impro  =         0.0000 E_vdwl   =         1.1326 
E_coul   =         0.0000 E_long   =         0.0000 Press    =        41.3839 
---------------- Step     1350 ----- CPU =      0.1946 (sec) ----------------
TotEng   =        23.7845 KinEng   =        22.7684 Temp     =        15.2384 
PotEng   =         1.0161 E_bond   =         0.0000 E_angle  =         0.0000 
E_dihed  =         0.0000 E_impro  =         0.0000 E_vdwl   =         1.0161 
E_coul   =         0.0000 E_long   =         0.0000 Press    =        41.3999 
---------------- Step     1400 ----- CPU =      0.2022 (sec) ----------------
TotEng   =        24.0407 KinEng   =        22.1461 Temp     =        14.8220 
PotEng   =         1.8946 E_bond   =         0.0000 E_angle  =         0.0000 
E_dihed  =         0.0000 E_impro  =         0.0000 E_vdwl   =         1.8946 
E_coul   =         0.0000 E_long   =         0.0000 Press    =        44.3099 
---------------- Step     1450 ----- CPU =      0.2093 (sec) ----------------
TotEng   =        24.9210 KinEng   =        22.8436 Temp     =        15.2888 
PotEng   =         2.0774 E_bond   =         0.0000 E_angle  =         0.0000 
E_dihed  =         0.0000 E_impro  =         0.0000 E_vdwl   =         2.0774 
E_coul   =         0.0000 E_long   =         0.0000 Press    =        45.5343 
---------------- Step     1500 ----- CPU =      0.2167 (sec) ----------------
TotEng   =        25.3550 KinEng   =        23.3981 Temp     =        15.6599 
PotEng   =         1.9569 E_bond   =         0.0000 E_angle  =         0.0000 
E_dihed  =         0.0000 E_impro  =         0.0000 E_vdwl   =         1.9569 
E_coul   =         0.0000 E_long   =         0.0000 Press    =        45.2864 
---------------- Step     1550 ----- CPU =      0.2239 (sec) ----------------
TotEng   =        26.0557 KinEng   =        24.6709 Temp     =        16.5118 
PotEng   =         1.3848 E_bond   =         0.0000 E_angle  =         0.0000 
E_dihed  =         0.0000 E_impro  =         0.0000 E_vdwl   =         1.3848 
E_coul   =         0.0000 E_long   =         0.0000 Press    =        43.9404 
---------------- Step     1600 ----- CPU =      0.2313 (sec) ----------------
TotEng   =        26.7598 KinEng   =        24.2092 Temp     =        16.2028 
PotEng   =         2.5505 E_bond   =         0.0000 E_angle  =         0.0000 
E_dihed  =         0.0000 E_impro  =         0.0000 E_vdwl   =         2.5505 
E_coul   =         0.0000 E_long   =         0.0000 Press    =        48.1703 
---------------- Step     1650 ----- CPU =      0.2384 (sec) ----------------
TotEng   =        27.8052 KinEng   =        24.7026 Temp     =        16.5330 
PotEng   =         3.1026 E_bond   =         0.0000 E_angle  =         0.0000 
E_dihed  =         0.0000 E_impro  =         0.0000 E_vdwl   =         3.1026 
E_coul   =         0.0000 E_long   =         0.0000 Press    =        50.3611 
---------------- Step     1700 ----- CPU =      0.2459 (sec) ----------------
TotEng   =        28.4145 KinEng   =        26.2095 Temp     =        17.5415 
PotEng   =         2.2049 E_bond   =         0.0000 E_angle  =         0.0000 
E_dihed  =         0.0000 E_impro  =         0.0000 E_vdwl   =         2.2049 
E_coul   =         0.0000 E_long   =         0.0000 Press    =        47.6276 
---------------- Step     1750 ----- CPU =      0.2531 (sec) ----------------
TotEng   =        29.3795 KinEng   =        28.3166 Temp     =        18.9517 
PotEng   =         1.0630 E_bond   =         0.0000 E_angle  =         0.0000 
E_dihed  =         0.0000 E_impro  =         0.0000 E_vdwl   =         1.0630 
E_coul   =         0.0000 E_long   =         0.0000 Press    =        44.5815 
---------------- Step     1800 ----- CPU =      0.2606 (sec) ----------------
TotEng   =        30.0624 KinEng   =        28.1294 Temp     =        18.8265 
PotEng   =         1.9330 E_bond   =         0.0000 E_angle  =         0.0000 
E_dihed  =         0.0000 E_impro  =         0.0000 E_vdwl   =         1.9330 
E_coul   =         0.0000 E_long   =         0.0000 Press    =        48.0685 
---------------- Step     1850 ----- CPU =      0.2678 (sec) ----------------
TotEng   =        30.8840 KinEng   =        28.5665 Temp     =        19.1190 
PotEng   =         2.3175 E_bond   =         0.0000 E_angle  =         0.0000 
E_dihed  =         0.0000 E_impro  =         0.0000 E_vdwl   =         2.3175 
E_coul   =         0.0000 E_long   =         0.0000 Press    =        49.5147 
---------------- Step     1900 ----- CPU =      0.2753 (sec) ----------------
TotEng   =        31.8765 KinEng   =        29.1170 Temp     =        19.4875 
PotEng   =         2.7595 E_bond   =         0.0000 E_angle  =         0.0000 
E_dihed  =         0.0000 E_impro  =         0.0000 E_vdwl   =         2.7595 
E_coul   =         0.0000 E_long   =         0.0000 Press    =        51.8001 
---------------- Step     1950 ----- CPU =      0.2825 (sec) ----------------
TotEng   =        32.5008 KinEng   =        29.4899 Temp     =        19.7370 
PotEng   =         3.0109 E_bond   =         0.0000 E_angle  =         0.0000 
E_dihed  =         0.0000 E_impro  =         0.0000 E_vdwl   =         3.0109 
E_coul   =         0.0000 E_long   =         0.0000 Press    =        52.8148 
---------------- Step     2000 ----- CPU =      0.2900 (sec) ----------------
TotEng   =        33.1195 KinEng   =        30.5432 Temp     =        20.4420 
PotEng   =         2.5763 E_bond   =         0.0000 E_angle  =         0.0000 
E_dihed  =         0.0000 E_impro  =         0.0000 E_vdwl   =         2.5763 
E_coul   =         0.0000 E_long   =         0.0000 Press    =        51.7606 
---------------- Step     2050 ----- CPU =      0.2968 (sec) ----------------
TotEng   =        34.2662 KinEng   =        31.4302 Temp     =        21.0356 
PotEng   =         2.8360 E_bond   =         0.0000 E_angle  =         0.0000 
E_dihed  =         0.0000 E_impro  =         0.0000 E_vdwl   =         2.8360 
E_coul   =         0.0000 E_long   =         0.0000 Press    =        53.2285 
---------------- Step     2100 ----- CPU =      0.3041 (sec) ----------------
TotEng   =        34.7735 KinEng   =        31.9465 Temp     =        21.3812 
PotEng   =         2.8269 E_bond   =         0.0000 E_angle  =         0.0000 
E_dihed  =         0.0000 E_impro  =         0.0000 E_vdwl   =         2.8269 
E_coul   =         0.0000 E_long   =         0.0000 Press    =        53.6456 
---------------- Step     2150 ----- CPU =      0.3111 (sec) ----------------
TotEng   =        35.8673 KinEng   =        32.9868 Temp     =        22.0774 
PotEng   =         2.8805 E_bond   =         0.0000 E_angle  =         0.0000 
E_dihed  =         0.0000 E_impro  =         0.0000 E_vdwl   =         2.8805 
E_coul   =         0.0000 E_long   =         0.0000 Press    =        54.1729 
---------------- Step     2200 ----- CPU =      0.3185 (sec) ----------------
TotEng   =        36.5916 KinEng   =        33.5436 Temp     =        22.4501 
PotEng   =         3.0480 E_bond   =         0.0000 E_angle  =         0.0000 
E_dihed  =         0.0000 E_impro  =         0.0000 E_vdwl   =         3.0480 
E_coul   =         0.0000 E_long   =         0.0000 Press    =        54.9930 
---------------- Step     2250 ----- CPU =      0.3257 (sec) ----------------
TotEng   =        37.5184 KinEng   =        33.9317 Temp     =        22.7098 
PotEng   =         3.5867 E_bond   =         0.0000 E_angle  =         0.0000 
E_dihed  =         0.0000 E_impro  =         0.0000 E_vdwl   =         3.5867 
E_coul   =         0.0000 E_long   =         0.0000 Press    =        57.6798 
---------------- Step     2300 ----- CPU =      0.3332 (sec) ----------------
TotEng   =        38.2229 KinEng   =        34.9801 Temp     =        23.4115 
PotEng   =         3.2428 E_bond   =         0.0000 E_angle  =         0.0000 
E_dihed  =         0.0000 E_impro  =         0.0000 E_vdwl   =         3.2428 
E_coul   =         0.0000 E_long   =         0.0000 Press    =        56.7377 
---------------- Step     2350 ----- CPU =      0.3403 (sec) ----------------
TotEng   =        39.1366 KinEng   =        36.1324 Temp     =        24.1827 
PotEng   =         3.0043 E_bond   =         0.0000 E_angle  =         0.0000 
E_dihed  =         0.0000 E_impro  =         0.0000 E_vdwl   =         3.0043 
E_coul   =         0.0000 E_long   =         0.0000 Press    =        56.5743 
---------------- Step     2400 ----- CPU =      0.3478 (sec) ----------------
TotEng   =        39.6679 KinEng   =        36.4291 Temp     =        24.3813 
PotEng   =         3.2388 E_bond   =         0.0000 E_angle  =         0.0000 
E_dihed  =         0.0000 E_impro  =         0.0000 E_vdwl   =         3.2388 
E_coul   =         0.0000 E_long   =         0.0000 Press    =        57.6535 
---------------- Step     2450 ----- CPU =      0.3551 (sec) ----------------
TotEng   =        40.5587 KinEng   =        37.1109 Temp     =        24.8376 
PotEng   =         3.4478 E_bond   =         0.0000 E_angle  =         0.0000 
E_dihed  =         0.0000 E_impro  =         0.0000 E_vdwl   =         3.4478 
E_coul   =         0.0000 E_long   =         0.0000 Press    =        58.7089 
---------------- Step     2500 ----- CPU =      0.3626 (sec) ----------------
TotEng   =        41.4647 KinEng   =        38.0224 Temp     =        25.4477 
PotEng   =         3.4423 E_bond   =         0.0000 E_angle  =         0.0000 
E_dihed  =         0.0000 E_impro  =         0.0000 E_vdwl   =         3.4423 
E_coul   =         0.0000 E_long   =         0.0000 Press    =        59.2625 
---------------- Step     2550 ----- CPU =      0.3697 (sec) ----------------
TotEng   =        41.8178 KinEng   =        38.3088 Temp     =        25.6394 
PotEng   =         3.5090 E_bond   =         0.0000 E_angle  =         0.0000 
E_dihed  =         0.0000 E_impro  =         0.0000 E_vdwl   =         3.5090 
E_coul   =         0.0000 E_long   =         0.0000 Press    =        59.7456 
---------------- Step     2600 ----- CPU =      0.3772 (sec) ----------------
TotEng   =        43.1208 KinEng   =        39.4380 Temp     =        26.3951 
PotEng   =         3.6829 E_bond   =         0.0000 E_angle  =         0.0000 
E_dihed  =         0.0000 E_impro  =         0.0000 E_vdwl   =         3.6829 
E_coul   =         0.0000 E_long   =         0.0000 Press    =        60.8993 
---------------- Step     2650 ----- CPU =      0.3844 (sec) ----------------
TotEng   =        43.9760 KinEng   =        40.2224 Temp     =        26.9201 
PotEng   =         3.7536 E_bond   =         0.0000 E_angle  =         0.0000 
E_dihed  =         0.0000 E_impro  =         0.0000 E_vdwl   =         3.7536 
E_coul   =         0.0000 E_long   =         0.0000 Press    =        61.5532 
---------------- Step     2700 ----- CPU =      0.3919 (sec) ----------------
TotEng   =        45.6612 KinEng   =        41.8672 Temp     =        28.0210 
PotEng   =         3.7939 E_bond   =         0.0000 E_angle  =         0.0000 
E_dihed  =         0.0000 E_impro  =         0.0000 E_vdwl   =         3.7939 
E_coul   =         0.0000 E_long   =         0.0000 Press    =        62.7910 
---------------- Step     2750 ----- CPU =      0.3991 (sec) ----------------
TotEng   =        46.6999 KinEng   =        43.2385 Temp     =        28.9387 
PotEng   =         3.4615 E_bond   =         0.0000 E_angle  =         0.0000 
E_dihed  =         0.0000 E_impro  =         0.0000 E_vdwl   =         3.4615 
E_coul   =         0.0000 E_long   =         0.0000 Press    =        62.0066 
---------------- Step     2800 ----- CPU =      0.4066 (sec) ----------------
TotEng   =        48.0478 KinEng   =        44.5729 Temp     =        29.8318 
PotEng   =         3.4749 E_bond   =         0.0000 E_angle  =         0.0000 
E_dihed  =         0.0000 E_impro  =         0.0000 E_vdwl   =         3.4749 
E_coul   =         0.0000 E_long   =         0.0000 Press    =        62.9795 
---------------- Step     2850 ----- CPU =      0.4138 (sec) ----------------
TotEng   =        49.0107 KinEng   =        45.2105 Temp     =        30.2586 
PotEng   =         3.8002 E_bond   =         0.0000 E_angle  =         0.0000 
E_dihed  =         0.0000 E_impro  =         0.0000 E_vdwl   =         3.8002 
E_coul   =         0.0000 E_long   =         0.0000 Press    =        64.6731 
---------------- Step     2900 ----- CPU =      0.4213 (sec) ----------------
TotEng   =        49.4893 KinEng   =        44.5388 Temp     =        29.8090 
PotEng   =         4.9505 E_bond   =         0.0000 E_angle  =         0.0000 
E_dihed  =         0.0000 E_impro  =         0.0000 E_vdwl   =         4.9505 
E_coul   =         0.0000 E_long   =         0.0000 Press    =        68.8924 
---------------- Step     2950 ----- CPU =      0.4285 (sec) ----------------
TotEng   =        50.2007 KinEng   =        46.3524 Temp     =        31.0228 
PotEng   =         3.8483 E_bond   =         0.0000 E_angle  =         0.0000 
E_dihed  =         0.0000 E_impro  =         0.0000 E_vdwl   =         3.8483 
E_coul   =         0.0000 E_long   =         0.0000 Press    =        65.9226 
---------------- Step     3000 ----- CPU =      0.4360 (sec) ----------------
TotEng   =        51.1023 KinEng   =        47.1597 Temp     =        31.5631 
PotEng   =         3.9426 E_bond   =         0.0000 E_angle  =         0.0000 
E_dihed  =         0.0000 E_impro  =         0.0000 E_vdwl   =         3.9426 
E_coul   =         0.0000 E_long   =         0.0000 Press    =        66.7026 
---------------- Step     3050 ----- CPU =      0.4429 (sec) ----------------
TotEng   =        52.2863 KinEng   =        47.1051 Temp     =        31.5266 
PotEng   =         5.1812 E_bond   =         0.0000 E_angle  =         0.0000 
E_dihed  =         0.0000 E_impro  =         0.0000 E_vdwl   =         5.1812 
E_coul   =         0.0000 E_long   =         0.0000 Press    =        70.5843 
---------------- Step     3100 ----- CPU =      0.4503 (sec) ----------------
TotEng   =        53.5766 KinEng   =        48.4633 Temp     =        32.4356 
PotEng   =         5.1133 E_bond   =         0.0000 E_angle  =         0.0000 
E_dihed  =         0.0000 E_impro  =         0.0000 E_vdwl   =         5.1133 
E_coul   =         0.0000 E_long   =         0.0000 Press    =        71.3438 
---------------- Step     3150 ----- CPU =      0.4575 (sec) ----------------
TotEng   =        54.4162 KinEng   =        48.4606 Temp     =        32.4338 
PotEng   =         5.9555 E_bond   =         0.0000 E_angle  =         0.0000 
E_dihed  =         0.0000 E_impro  =         0.0000 E_vdwl   =         5.9555 
E_coul   =         0.0000 E_long   =         0.0000 Press    =        74.8711 
---------------- Step     3200 ----- CPU =      0.4650 (sec) ----------------
TotEng   =        55.4730 KinEng   =        50.9558 Temp     =        34.1038 
PotEng   =         4.5172 E_bond   =         0.0000 E_angle  =         0.0000 
E_dihed  =         0.0000 E_impro  =         0.0000 E_vdwl   =         4.5172 
E_coul   =         0.0000 E_long   =         0.0000 Press    =        70.6682 
---------------- Step     3250 ----- CPU =      0.4721 (sec) ----------------
TotEng   =        56.8391 KinEng   =        53.2207 Temp     =        35.6196 
PotEng   =         3.6184 E_bond   =         0.0000 E_angle  =         0.0000 
E_dihed  =         0.0000 E_impro  =         0.0000 E_vdwl   =         3.6184 
E_coul   =         0.0000 E_long   =         0.0000 Press    =        68.9237 
---------------- Step     3300 ----- CPU =      0.4796 (sec) ----------------
TotEng   =        57.3445 KinEng   =        52.8912 Temp     =        35.3991 
PotEng   =         4.4534 E_bond   =         0.0000 E_angle  =         0.0000 
E_dihed  =         0.0000 E_impro  =         0.0000 E_vdwl   =         4.4534 
E_coul   =         0.0000 E_long   =         0.0000 Press    =        71.8384 
---------------- Step     3350 ----- CPU =      0.4867 (sec) ----------------
TotEng   =        58.3243 KinEng   =        53.1740 Temp     =        35.5884 
PotEng   =         5.1502 E_bond   =         0.0000 E_angle  =         0.0000 
E_dihed  =         0.0000 E_impro  =         0.0000 E_vdwl   =         5.1502 
E_coul   =         0.0000 E_long   =         0.0000 Press    =        74.5903 
---------------- Step     3400 ----- CPU =      0.4943 (sec) ----------------
TotEng   =        59.3683 KinEng   =        54.9276 Temp     =        36.7620 
PotEng   =         4.4407 E_bond   =         0.0000 E_angle  =         0.0000 
E_dihed  =         0.0000 E_impro  =         0.0000 E_vdwl   =         4.4407 
E_coul   =         0.0000 E_long   =         0.0000 Press    =        72.4099 
---------------- Step     3450 ----- CPU =      0.5019 (sec) ----------------
TotEng   =        61.0186 KinEng   =        55.0444 Temp     =        36.8402 
PotEng   =         5.9742 E_bond   =         0.0000 E_angle  =         0.0000 
E_dihed  =         0.0000 E_impro  =         0.0000 E_vdwl   =         5.9742 
E_coul   =         0.0000 E_long   =         0.0000 Press    =        78.2939 
---------------- Step     3500 ----- CPU =      0.5094 (sec) ----------------
TotEng   =        62.1760 KinEng   =        56.8027 Temp     =        38.0170 
PotEng   =         5.3732 E_bond   =         0.0000 E_angle  =         0.0000 
E_dihed  =         0.0000 E_impro  =         0.0000 E_vdwl   =         5.3732 
E_coul   =         0.0000 E_long   =         0.0000 Press    =        77.0157 
---------------- Step     3550 ----- CPU =      0.5166 (sec) ----------------
TotEng   =        63.3061 KinEng   =        56.4747 Temp     =        37.7974 
PotEng   =         6.8314 E_bond   =         0.0000 E_angle  =         0.0000 
E_dihed  =         0.0000 E_impro  =         0.0000 E_vdwl   =         6.8314 
E_coul   =         0.0000 E_long   =         0.0000 Press    =        82.5505 
---------------- Step     3600 ----- CPU =      0.5241 (sec) ----------------
TotEng   =        64.5512 KinEng   =        60.1795 Temp     =        40.2770 
PotEng   =         4.3717 E_bond   =         0.0000 E_angle  =         0.0000 
E_dihed  =         0.0000 E_impro  =         0.0000 E_vdwl   =         4.3717 
E_coul   =         0.0000 E_long   =         0.0000 Press    =        75.3925 
---------------- Step     3650 ----- CPU =      0.5312 (sec) ----------------
TotEng   =        65.8045 KinEng   =        59.9867 Temp     =        40.1479 
PotEng   =         5.8178 E_bond   =         0.0000 E_angle  =         0.0000 
E_dihed  =         0.0000 E_impro  =         0.0000 E_vdwl   =         5.8178 
E_coul   =         0.0000 E_long   =         0.0000 Press    =        80.8974 
---------------- Step     3700 ----- CPU =      0.5387 (sec) ----------------
TotEng   =        66.3712 KinEng   =        61.8337 Temp     =        41.3841 
PotEng   =         4.5375 E_bond   =         0.0000 E_angle  =         0.0000 
E_dihed  =         0.0000 E_impro  =         0.0000 E_vdwl   =         4.5375 
E_coul   =         0.0000 E_long   =         0.0000 Press    =        76.9507 
---------------- Step     3750 ----- CPU =      0.5459 (sec) ----------------
TotEng   =        67.6306 KinEng   =        61.1982 Temp     =        40.9588 
PotEng   =         6.4324 E_bond   =         0.0000 E_angle  =         0.0000 
E_dihed  =         0.0000 E_impro  =         0.0000 E_vdwl   =         6.4324 
E_coul   =         0.0000 E_long   =         0.0000 Press    =        83.9795 
---------------- Step     3800 ----- CPU =      0.5534 (sec) ----------------
TotEng   =        68.6790 KinEng   =        62.4482 Temp     =        41.7954 
PotEng   =         6.2308 E_bond   =         0.0000 E_angle  =         0.0000 
E_dihed  =         0.0000 E_impro  =         0.0000 E_vdwl   =         6.2308 
E_coul   =         0.0000 E_long   =         0.0000 Press    =        83.6779 
---------------- Step     3850 ----- CPU =      0.5606 (sec) ----------------
TotEng   =        69.7805 KinEng   =        62.7425 Temp     =        41.9924 
PotEng   =         7.0380 E_bond   =         0.0000 E_angle  =         0.0000 
E_dihed  =         0.0000 E_impro  =         0.0000 E_vdwl   =         7.0380 
E_coul   =         0.0000 E_long   =         0.0000 Press    =        86.7659 
---------------- Step     3900 ----- CPU =      0.5682 (sec) ----------------
TotEng   =        71.0561 KinEng   =        66.0174 Temp     =        44.1842 
PotEng   =         5.0387 E_bond   =         0.0000 E_angle  =         0.0000 
E_dihed  =         0.0000 E_impro  =         0.0000 E_vdwl   =         5.0387 
E_coul   =         0.0000 E_long   =         0.0000 Press    =        81.0241 
---------------- Step     3950 ----- CPU =      0.5753 (sec) ----------------
TotEng   =        72.2050 KinEng   =        66.7503 Temp     =        44.6747 
PotEng   =         5.4546 E_bond   =         0.0000 E_angle  =         0.0000 
E_dihed  =         0.0000 E_impro  =         0.0000 E_vdwl   =         5.4546 
E_coul   =         0.0000 E_long   =         0.0000 Press    =        83.3845 
---------------- Step     4000 ----- CPU =      0.5828 (sec) ----------------
TotEng   =        73.2280 KinEng   =        67.9933 Temp     =        45.5066 
PotEng   =         5.2347 E_bond   =         0.0000 E_angle  =         0.0000 
E_dihed  =         0.0000 E_impro  =         0.0000 E_vdwl   =         5.2347 
E_coul   =         0.0000 E_long   =         0.0000 Press    =        83.0910 
---------------- Step     4050 ----- CPU =      0.5897 (sec) ----------------
TotEng   =        74.5406 KinEng   =        67.7973 Temp     =        45.3754 
PotEng   =         6.7433 E_bond   =         0.0000 E_angle  =         0.0000 
E_dihed  =         0.0000 E_impro  =         0.0000 E_vdwl   =         6.7433 
E_coul   =         0.0000 E_long   =         0.0000 Press    =        88.2132 
---------------- Step     4100 ----- CPU =      0.5971 (sec) ----------------
TotEng   =        75.3997 KinEng   =        70.1962 Temp     =        46.9810 
PotEng   =         5.2035 E_bond   =         0.0000 E_angle  =         0.0000 
E_dihed  =         0.0000 E_impro  =         0.0000 E_vdwl   =         5.2035 
E_coul   =         0.0000 E_long   =         0.0000 Press    =        84.4063 
---------------- Step     4150 ----- CPU =      0.6042 (sec) ----------------
TotEng   =        76.1851 KinEng   =        68.8440 Temp     =        46.0760 
PotEng   =         7.3411 E_bond   =         0.0000 E_angle  =         0.0000 
E_dihed  =         0.0000 E_impro  =         0.0000 E_vdwl   =         7.3411 
E_coul   =         0.0000 E_long   =         0.0000 Press    =        91.4566 
---------------- Step     4200 ----- CPU =      0.6117 (sec) ----------------
TotEng   =        77.1519 KinEng   =        72.1723 Temp     =        48.3035 
PotEng   =         4.9797 E_bond   =         0.0000 E_angle  =         0.0000 
E_dihed  =         0.0000 E_impro  =         0.0000 E_vdwl   =         4.9797 
E_coul   =         0.0000 E_long   =         0.0000 Press    =        84.0937 
---------------- Step     4250 ----- CPU =      0.6188 (sec) ----------------
TotEng   =        78.5810 KinEng   =        72.6172 Temp     =        48.6013 
PotEng   =         5.9638 E_bond   =         0.0000 E_angle  =         0.0000 
E_dihed  =         0.0000 E_impro  =         0.0000 E_vdwl   =         5.9638 
E_coul   =         0.0000 E_long   =         0.0000 Press    =        88.1451 
---------------- Step     4300 ----- CPU =      0.6263 (sec) ----------------
TotEng   =        81.8556 KinEng   =        74.8305 Temp     =        50.0826 
PotEng   =         7.0251 E_bond   =         0.0000 E_angle  =         0.0000 
E_dihed  =         0.0000 E_impro  =         0.0000 E_vdwl   =         7.0251 
E_coul   =         0.0000 E_long   =         0.0000 Press    =        93.3580 
---------------- Step     4350 ----- CPU =      0.6335 (sec) ----------------
TotEng   =        84.5025 KinEng   =        76.8798 Temp     =        51.4542 
PotEng   =         7.6228 E_bond   =         0.0000 E_angle  =         0.0000 
E_dihed  =         0.0000 E_impro  =         0.0000 E_vdwl   =         7.6228 
E_coul   =         0.0000 E_long   =         0.0000 Press    =        96.8733 
---------------- Step     4400 ----- CPU =      0.6410 (sec) ----------------
TotEng   =        85.7030 KinEng   =        77.5994 Temp     =        51.9358 
PotEng   =         8.1036 E_bond   =         0.0000 E_angle  =         0.0000 
E_dihed  =         0.0000 E_impro  =         0.0000 E_vdwl   =         8.1036 
E_coul   =         0.0000 E_long   =         0.0000 Press    =        99.3105 
---------------- Step     4450 ----- CPU =      0.6482 (sec) ----------------
TotEng   =        89.3078 KinEng   =        81.3299 Temp     =        54.4326 
PotEng   =         7.9780 E_bond   =         0.0000 E_angle  =         0.0000 
E_dihed  =         0.0000 E_impro  =         0.0000 E_vdwl   =         7.9780 
E_coul   =         0.0000 E_long   =         0.0000 Press    =       100.6611 
---------------- Step     4500 ----- CPU =      0.6557 (sec) ----------------
TotEng   =       171.9623 KinEng   =       148.6256 Temp     =        99.4723 
PotEng   =        23.3366 E_bond   =         0.0000 E_angle  =         0.0000 
E_dihed  =         0.0000 E_impro  =         0.0000 E_vdwl   =        23.3366 
E_coul   =         0.0000 E_long   =         0.0000 Press    =       191.9772 
ERROR: Lost atoms: original 256 current 227 (../thermo.cpp:442)
Last command: run		10000
